 vasp.6.4.2 20Jul23 (build Oct 12 2023 10:31:02) complex                         
 executed on              LinuxNV date 2025.05.19  01:03:27
 running  160 mpi-ranks, with    1 threads/rank, on   10 nodes
 distrk:  each k-point on   80 cores,    2 groups
 distr:  one band on NCORE=   5 cores,   16 groups


--------------------------------------------------------------------------------------------------------


 INCAR:
   ENCUT = 360.000000
   SIGMA = 0.050000
   EDIFF = 1.00e-06
   ALGO = Normal
   GGA = PE
   PREC = Normal
   SYSTEM = ./
   ICHARG = 2
   ISMEAR = 0
   ISPIN = 1
   ISTART = 0
   ISYM = 0
   KPAR = 2
   LMAXMIX = 4
   NELM = 100
   NPAR = 16
   LASPH = .TRUE.
   LCHARG = .FALSE.
   LWAVE = .FALSE.

 POTCAR:    PAW_PBE Ge 05Jan2001                  
 POTCAR:    PAW_PBE Se 06Sep2000                  
 POTCAR:    PAW_PBE Ge 05Jan2001                  
   VRHFIN =Ge: s2p2                                                                                 
   LEXCH  = PE                                                                                      
   EATOM  =   104.9960 eV,    7.7170 Ry                                                             
                                                                                                    
   TITEL  = PAW_PBE Ge 05Jan2001                                                                    
   LULTRA =        F    use ultrasoft PP ?                                                          
   IUNSCR =        1    unscreen: 0-lin 1-nonlin 2-no                                               
   RPACOR =    2.170    partial core radius                                                         
   POMASS =   72.610; ZVAL   =    4.000    mass and valenz                                          
   RCORE  =    2.300    outmost cutoff radius                                                       
   RWIGS  =    2.300; RWIGS  =    1.217    wigner-seitz radius (au A)                               
   ENMAX  =  173.807; ENMIN  =  130.355 eV                                                          
   ICORE  =        3    local potential                                                             
   LCOR   =        T    correct aug charges                                                         
   LPAW   =        T    paw PP                                                                      
   EAUG   =  385.843                                                                                
   DEXC   =    0.000                                                                                
   RMAX   =    2.342    core radius for proj-oper                                                   
   RAUG   =    1.300    factor for augmentation sphere                                              
   RDEP   =    2.318    radius for radial grids                                                     
   RDEPT  =    2.103    core radius for aug-charge                                                  
                                                                                                    
   Atomic configuration                                                                             
   10 entries                                                                                       
     n  l   j            E        occ.                                                              
     1  0  0.50    -10959.8463   2.0000                                                             
     2  0  0.50     -1371.6056   2.0000                                                             
     2  1  1.50     -1198.4791   6.0000                                                             
     3  0  0.50      -168.4733   2.0000                                                             
     3  1  1.50      -115.6019   6.0000                                                             
     3  2  2.50       -29.3106  10.0000                                                             
     4  0  0.50       -11.7309   2.0000                                                             
     4  1  0.50        -3.8952   2.0000                                                             
     4  2  1.50        -4.0817   0.0000                                                             
     4  3  2.50        -4.0817   0.0000                                                             
   Description                                                                                      
     l       E           TYP  RCUT    TYP  RCUT                                                     
     0    -11.7309493     23  2.300                                                                 
     0     -7.4578696     23  2.300                                                                 
     1     -3.8952261     23  2.300                                                                 
     1      6.1178114     23  2.300                                                                 
     2     -4.0817478     23  2.300                                                                 
     3     -1.3605826      7  2.300                                                                 
  local pseudopotential read in
  partial core-charges read in
  partial kinetic energy density read in
  atomic valenz-charges read in
  non local Contribution for L=            0  read in
    real space projection operators read in
  non local Contribution for L=            0  read in
    real space projection operators read in
  non local Contribution for L=            1  read in
    real space projection operators read in
  non local Contribution for L=            1  read in
    real space projection operators read in
  non local Contribution for L=            2  read in
    real space projection operators read in
    PAW grid and wavefunctions read in
 
   number of l-projection  operators is LMAX  =            5
   number of lm-projection operators is LMMAX =           13
 
 POTCAR:    PAW_PBE Se 06Sep2000                  
   VRHFIN =Se: s2p4                                                                                 
   LEXCH  = PE                                                                                      
   EATOM  =   257.1286 eV,   18.8984 Ry                                                             
                                                                                                    
   TITEL  = PAW_PBE Se 06Sep2000                                                                    
   LULTRA =        F    use ultrasoft PP ?                                                          
   IUNSCR =        1    unscreen: 0-lin 1-nonlin 2-no                                               
   RPACOR =    1.900    partial core radius                                                         
   POMASS =   78.960; ZVAL   =    6.000    mass and valenz                                          
   RCORE  =    2.100    outmost cutoff radius                                                       
   RWIGS  =    2.200; RWIGS  =    1.164    wigner-seitz radius (au A)                               
   ENMAX  =  211.555; ENMIN  =  158.666 eV                                                          
   ICORE  =        3    local potential                                                             
   LCOR   =        T    correct aug charges                                                         
   LPAW   =        T    paw PP                                                                      
   EAUG   =  446.842                                                                                
   DEXC   =    0.000                                                                                
   RMAX   =    2.147    core radius for proj-oper                                                   
   RAUG   =    1.300    factor for augmentation sphere                                              
   RDEP   =    2.177    radius for radial grids                                                     
   RDEPT  =    1.928    core radius for aug-charge                                                  
                                                                                                    
   Atomic configuration                                                                             
   10 entries                                                                                       
     n  l   j            E        occ.                                                              
     1  0  0.50    -12503.4787   2.0000                                                             
     2  0  0.50     -1606.9547   2.0000                                                             
     2  1  1.50     -1413.3140   6.0000                                                             
     3  0  0.50      -213.4885   2.0000                                                             
     3  1  1.50      -152.9538   6.0000                                                             
     3  2  2.50       -53.1221  10.0000                                                             
     4  0  0.50       -17.2865   2.0000                                                             
     4  1  0.50        -6.5110   4.0000                                                             
     4  2  2.50        -6.8029   0.0000                                                             
     4  3  2.50        -6.8029   0.0000                                                             
   Description                                                                                      
     l       E           TYP  RCUT    TYP  RCUT                                                     
     0    -17.2865377     23  2.100                                                                 
     0    -15.3094411     23  2.100                                                                 
     1     -6.5110275     23  2.100                                                                 
     1     -0.0695192     23  2.100                                                                 
     2     -6.8029130     23  2.100                                                                 
     3     -1.3605826      7  2.100                                                                 
  local pseudopotential read in
  partial core-charges read in
  partial kinetic energy density read in
  atomic valenz-charges read in
  non local Contribution for L=            0  read in
    real space projection operators read in
  non local Contribution for L=            0  read in
    real space projection operators read in
  non local Contribution for L=            1  read in
    real space projection operators read in
  non local Contribution for L=            1  read in
    real space projection operators read in
  non local Contribution for L=            2  read in
    real space projection operators read in
    PAW grid and wavefunctions read in
 
   number of l-projection  operators is LMAX  =            5
   number of lm-projection operators is LMMAX =           13
 
  PAW_PBE Ge 05Jan2001                  :
 energy of atom  1       EATOM= -104.9960
 kinetic energy error for atom=    0.0005 (will be added to EATOM!!)
  PAW_PBE Se 06Sep2000                  :
 energy of atom  2       EATOM= -257.1286
 kinetic energy error for atom=    0.0030 (will be added to EATOM!!)
 
 
 POSCAR: Ge Se
  positions in cartesian coordinates
  No initial velocities read in
 exchange correlation table for  LEXCH =        8
   RHO(1)=    0.500       N(1)  =     2000
   RHO(2)=  100.500       N(2)  =     4000
 


--------------------------------------------------------------------------------------------------------


 ion  position               nearest neighbor table
   1  0.337  0.169  0.132-   5 2.59   6 2.60   6 2.60
   2  0.837  0.669  0.368-   6 2.59   5 2.60   5 2.60
   3  0.750  0.904  0.868-   7 2.59   8 2.60   8 2.60
   4  0.250  0.404  0.632-   8 2.59   7 2.60   7 2.60
   5  0.337  0.052  0.351-   1 2.59   2 2.60   2 2.60
   6  0.837  0.552  0.149-   2 2.59   1 2.60   1 2.60
   7  0.750  0.021  0.649-   3 2.59   4 2.60   4 2.60
   8  0.250  0.521  0.851-   4 2.59   3 2.60   3 2.60
 

IMPORTANT INFORMATION: All symmetrisations will be switched off!
NOSYMM: (Re-)initialisation of all symmetry stuff for point group C_1.


----------------------------------------------------------------------------------------

                                     Primitive cell                                     

  volume of cell :     202.3233

  direct lattice vectors                    reciprocal lattice vectors
     3.858100176  0.000000000  0.000000000     0.259194929  0.000000000  0.000000000
     0.000000000  4.526575088  0.000000000     0.000000000  0.220917577  0.000000000
     0.000000000  0.000000000 11.585176468     0.000000000  0.000000000  0.086317200

  length of vectors
     3.858100176  4.526575088 11.585176468     0.259194929  0.220917577  0.086317200

  position of ions in fractional coordinates (direct lattice)
     0.336956525  0.168707125  0.131971745
     0.836956489  0.668707113  0.368028228
     0.749999855  0.903756548  0.868028249
     0.249999781  0.403756501  0.631971759
     0.336956509  0.051929473  0.351109927
     0.836956525  0.551929494  0.148890049
     0.749999761  0.020534152  0.648890076
     0.249999838  0.520534176  0.851109946

  ion indices of the primitive-cell ions
   primitive index   ion index
                 1           1
                 2           2
                 3           3
                 4           4
                 5           5
                 6           6
                 7           7
                 8           8

----------------------------------------------------------------------------------------

 
 
 KPOINTS: KPOINTS created by Atomic Simulation Env

Automatic generation of k-mesh.
 Grid dimensions read from file:
 generate k-points for:    6    6    2

 Generating k-lattice:

  Cartesian coordinates                     Fractional coordinates (reciprocal lattice)
     0.043199155  0.000000000  0.000000000     0.166666667  0.000000000  0.000000000
     0.000000000  0.036819596  0.000000000     0.000000000  0.166666667  0.000000000
     0.000000000  0.000000000  0.043158600     0.000000000  0.000000000  0.500000000

  Length of vectors
     0.043199155  0.036819596  0.043158600

  Shift w.r.t. Gamma in fractional coordinates (k-lattice)
     0.000000000  0.000000000  0.000000000

 
 Subroutine IBZKPT returns following result:
 ===========================================
 
 Found     40 irreducible k-points:
 
 Following reciprocal coordinates:
            Coordinates               Weight
  0.000000  0.000000  0.000000      1.000000
  0.166667  0.000000  0.000000      2.000000
  0.333333  0.000000  0.000000      2.000000
  0.500000  0.000000  0.000000      1.000000
  0.000000  0.166667  0.000000      2.000000
  0.166667  0.166667  0.000000      2.000000
  0.166667 -0.166667  0.000000      2.000000
  0.333333  0.166667  0.000000      2.000000
  0.333333 -0.166667  0.000000      2.000000
  0.500000  0.166667  0.000000      2.000000
  0.000000  0.333333  0.000000      2.000000
  0.166667  0.333333  0.000000      2.000000
  0.166667 -0.333333  0.000000      2.000000
  0.333333  0.333333  0.000000      2.000000
  0.333333 -0.333333  0.000000      2.000000
  0.500000  0.333333  0.000000      2.000000
  0.000000  0.500000  0.000000      1.000000
  0.166667  0.500000  0.000000      2.000000
  0.333333  0.500000  0.000000      2.000000
  0.500000  0.500000  0.000000      1.000000
  0.000000  0.000000  0.500000      1.000000
  0.166667  0.000000  0.500000      2.000000
  0.333333  0.000000  0.500000      2.000000
  0.500000  0.000000  0.500000      1.000000
  0.000000  0.166667  0.500000      2.000000
  0.166667  0.166667  0.500000      2.000000
  0.166667 -0.166667  0.500000      2.000000
  0.333333  0.166667  0.500000      2.000000
  0.333333 -0.166667  0.500000      2.000000
  0.500000  0.166667  0.500000      2.000000
  0.000000  0.333333  0.500000      2.000000
  0.166667  0.333333  0.500000      2.000000
  0.166667 -0.333333  0.500000      2.000000
  0.333333  0.333333  0.500000      2.000000
  0.333333 -0.333333  0.500000      2.000000
  0.500000  0.333333  0.500000      2.000000
  0.000000  0.500000  0.500000      1.000000
  0.166667  0.500000  0.500000      2.000000
  0.333333  0.500000  0.500000      2.000000
  0.500000  0.500000  0.500000      1.000000
 
 Following cartesian coordinates:
            Coordinates               Weight
  0.000000  0.000000  0.000000      1.000000
  0.043199  0.000000  0.000000      2.000000
  0.086398  0.000000  0.000000      2.000000
  0.129597  0.000000  0.000000      1.000000
  0.000000  0.036820  0.000000      2.000000
  0.043199  0.036820  0.000000      2.000000
  0.043199 -0.036820  0.000000      2.000000
  0.086398  0.036820  0.000000      2.000000
  0.086398 -0.036820  0.000000      2.000000
  0.129597  0.036820  0.000000      2.000000
  0.000000  0.073639  0.000000      2.000000
  0.043199  0.073639  0.000000      2.000000
  0.043199 -0.073639  0.000000      2.000000
  0.086398  0.073639  0.000000      2.000000
  0.086398 -0.073639  0.000000      2.000000
  0.129597  0.073639  0.000000      2.000000
  0.000000  0.110459  0.000000      1.000000
  0.043199  0.110459  0.000000      2.000000
  0.086398  0.110459  0.000000      2.000000
  0.129597  0.110459  0.000000      1.000000
  0.000000  0.000000  0.043159      1.000000
  0.043199  0.000000  0.043159      2.000000
  0.086398  0.000000  0.043159      2.000000
  0.129597  0.000000  0.043159      1.000000
  0.000000  0.036820  0.043159      2.000000
  0.043199  0.036820  0.043159      2.000000
  0.043199 -0.036820  0.043159      2.000000
  0.086398  0.036820  0.043159      2.000000
  0.086398 -0.036820  0.043159      2.000000
  0.129597  0.036820  0.043159      2.000000
  0.000000  0.073639  0.043159      2.000000
  0.043199  0.073639  0.043159      2.000000
  0.043199 -0.073639  0.043159      2.000000
  0.086398  0.073639  0.043159      2.000000
  0.086398 -0.073639  0.043159      2.000000
  0.129597  0.073639  0.043159      2.000000
  0.000000  0.110459  0.043159      1.000000
  0.043199  0.110459  0.043159      2.000000
  0.086398  0.110459  0.043159      2.000000
  0.129597  0.110459  0.043159      1.000000
 


--------------------------------------------------------------------------------------------------------




 Dimension of arrays:
   k-points           NKPTS =     40   k-points in BZ     NKDIM =     40   number of bands    NBANDS=     32
   number of dos      NEDOS =    301   number of ions     NIONS =      8
   non local maximal  LDIM  =      5   non local SUM 2l+1 LMDIM =     13
   total plane-waves  NPLWV =  23328
   max r-space proj   IRMAX =      1   max aug-charges    IRDMAX=   6465
   dimension x,y,z NGX =    18 NGY =   24 NGZ =   54
   dimension x,y,z NGXF=    36 NGYF=   48 NGZF=  108
   support grid    NGXF=    36 NGYF=   48 NGZF=  108
   ions per type =               4   4
   NGX,Y,Z   is equivalent  to a cutoff of   7.76,  8.81,  7.75 a.u.
   NGXF,Y,Z  is equivalent  to a cutoff of  15.51, 17.63, 15.50 a.u.

 SYSTEM =  ./                                      
 POSCAR =  Ge Se                                   

 Startparameter for this run:
   NWRITE =      2    write-flag & timer
   PREC   = normal    normal or accurate (medium, high low for compatibility)
   ISTART =      0    job   : 0-new  1-cont  2-samecut
   ICHARG =      2    charge: 1-file 2-atom 10-const
   ISPIN  =      1    spin polarized calculation?
   LNONCOLLINEAR =      F non collinear calculations
   LSORBIT =      F    spin-orbit coupling
   INIWAV =      1    electr: 0-lowe 1-rand  2-diag
   LASPH  =      T    aspherical Exc in radial PAW
 Electronic Relaxation 1
   ENCUT  =  360.0 eV  26.46 Ry    5.14 a.u.   5.97  7.00 17.92*2*pi/ulx,y,z
   ENINI  =  360.0     initial cutoff
   ENAUG  =  446.8 eV  augmentation charge cutoff
   NELM   =    100;   NELMIN=  2; NELMDL= -5     # of ELM steps 
   EDIFF  = 0.1E-05   stopping-criterion for ELM
   LREAL  =      F    real-space projection
   NLSPLINE    = F    spline interpolate recip. space projectors
   LCOMPAT=      F    compatible to vasp.4.4
   GGA_COMPAT  = T    GGA compatible to vasp.4.4-vasp.4.6
   LMAXPAW     = -100 max onsite density
   LMAXMIX     =    4 max onsite mixed and CHGCAR
   VOSKOWN=      0    Vosko Wilk Nusair interpolation
   ROPT   =    0.00000   0.00000
 Ionic relaxation
   EDIFFG = 0.1E-04   stopping-criterion for IOM
   NSW    =      0    number of steps for IOM
   NBLOCK =      1;   KBLOCK =      1    inner block; outer block 
   IBRION =     -1    ionic relax: 0-MD 1-quasi-New 2-CG
   NFREE  =      0    steps in history (QN), initial steepest desc. (CG)
   ISIF   =      2    stress and relaxation
   IWAVPR =     10    prediction:  0-non 1-charg 2-wave 3-comb
   ISYM   =      0    0-nonsym 1-usesym 2-fastsym
   LCORR  =      T    Harris-Foulkes like correction to forces

   POTIM  = 0.5000    time-step for ionic-motion
   TEIN   =    0.0    initial temperature
   TEBEG  =    0.0;   TEEND  =   0.0 temperature during run
   SMASS  =  -3.00    Nose mass-parameter (am)
   estimated Nose-frequenzy (Omega)   =  0.10E-29 period in steps = 0.13E+47 mass=  -0.340E-27a.u.
   SCALEE = 1.0000    scale energy and forces
   NPACO  =    256;   APACO  = 10.0  distance and # of slots for P.C.
   PSTRESS=    0.0 pullay stress

  Mass of Ions in am
   POMASS =  72.61 78.96
  Ionic Valenz
   ZVAL   =   4.00  6.00
  Atomic Wigner-Seitz radii
   RWIGS  =  -1.00 -1.00
  virtual crystal weights 
   VCA    =   1.00  1.00
   NELECT =      40.0000    total number of electrons
   NUPDOWN=      -1.0000    fix difference up-down

 DOS related values:
   EMIN   =  10.00;   EMAX   =-10.00  energy-range for DOS
   EFERMI =   0.00;   METHOD = LEGACY      
   ISMEAR =     0;   SIGMA  =   0.05  broadening in eV -4-tet -1-fermi 0-gaus

 Electronic relaxation 2 (details)
   IALGO  =     38    algorithm
   LDIAG  =      T    sub-space diagonalisation (order eigenvalues)
   LSUBROT=      F    optimize rotation matrix (better conditioning)
   TURBO    =      0    0=normal 1=particle mesh
   IRESTART =      0    0=no restart 2=restart with 2 vectors
   NREBOOT  =      0    no. of reboots
   NMIN     =      0    reboot dimension
   EREF     =   0.00    reference energy to select bands
   IMIX   =      4    mixing-type and parameters
     AMIX     =   0.40;   BMIX     =  1.00
     AMIX_MAG =   1.60;   BMIX_MAG =  1.00
     AMIN     =   0.10
     WC   =   100.;   INIMIX=   1;  MIXPRE=   1;  MAXMIX= -45

 Intra band minimization:
   WEIMIN = 0.0000     energy-eigenvalue tresh-hold
   EBREAK =  0.78E-08  absolut break condition
   DEPER  =   0.30     relativ break condition  

   TIME   =   0.40     timestep for ELM

  volume/ion in A,a.u.               =      25.29       170.67
  Fermi-wavevector in a.u.,A,eV,Ry     =   0.953702  1.802236 12.375155  0.909548
  Thomas-Fermi vector in A             =   2.082382
 
 Write flags
   LWAVE        =      F    write WAVECAR
   LDOWNSAMPLE  =      F    k-point downsampling of WAVECAR
   LCHARG       =      F    write CHGCAR
   LVTOT        =      F    write LOCPOT, total local potential
   LVHAR        =      F    write LOCPOT, Hartree potential only
   LELF         =      F    write electronic localiz. function (ELF)
   LORBIT       =      0    0 simple, 1 ext, 2 COOP (PROOUT), +10 PAW based schemes


 Dipole corrections
   LMONO  =      F    monopole corrections only (constant potential shift)
   LDIPOL =      F    correct potential (dipole corrections)
   IDIPOL =      0    1-x, 2-y, 3-z, 4-all directions 
   EPSILON=  1.0000000 bulk dielectric constant

 Exchange correlation treatment:
   GGA     =    PE    GGA type
   LEXCH   =     8    internal setting for exchange type
   LIBXC   =     F    Libxc                    
   VOSKOWN =     0    Vosko Wilk Nusair interpolation
   LHFCALC =     F    Hartree Fock is set to
   LHFONE  =     F    Hartree Fock one center treatment
   AEXX    =    0.0000 exact exchange contribution

 Linear response parameters
   LEPSILON=     F    determine dielectric tensor
   LRPA    =     F    only Hartree local field effects (RPA)
   LNABLA  =     F    use nabla operator in PAW spheres
   LVEL    =     F    velocity operator in full k-point grid
   CSHIFT  =0.1000    complex shift for real part using Kramers Kronig
   OMEGAMAX=  -1.0    maximum frequency
   DEG_THRESHOLD= 0.2000000E-02 threshold for treating states as degnerate
   RTIME   =   -0.100 relaxation time in fs
  (WPLASMAI=    0.000 imaginary part of plasma frequency in eV, 0.658/RTIME)
   DFIELD  = 0.0000000 0.0000000 0.0000000 field for delta impulse in time
 
  Optional k-point grid parameters
   LKPOINTS_OPT  =     F    use optional k-point grid
   KPOINTS_OPT_MODE=     1    mode for optional k-point grid
 
 Orbital magnetization related:
   ORBITALMAG=     F  switch on orbital magnetization
   LCHIMAG   =     F  perturbation theory with respect to B field
   DQ        =  0.001000  dq finite difference perturbation B field
   LLRAUG    =     F  two centre corrections for induced B field
   LBONE     =     F  B-component reconstruction in AE one-centre
   LVGVCALC  =     T  calculate vGv susceptibility
   LVGVAPPL  =     F  apply vGv susceptibility instead of pGv for G=0

 Random number generation:
   RANDOM_GENERATOR = DEFAULT
   PCG_SEED         = not used


--------------------------------------------------------------------------------------------------------


 Static calculation
 charge density and potential will be updated during run
 non-spin polarized calculation
 Variant of blocked Davidson
 Davidson routine will perform the subspace rotation
 perform sub-space diagonalisation
    after iterative eigenvector-optimisation
 modified Broyden-mixing scheme, WC =      100.0
 initial mixing is a Kerker type mixing with AMIX =  0.4000 and BMIX =      1.0000
 Hartree-type preconditioning will be used
 using additional bands            12
 reciprocal scheme for non local part
 use partial core corrections
 calculate Harris-corrections to forces 
   (improved forces if not selfconsistent)
 use gradient corrections 
 use of overlap-Matrix (Vanderbilt PP)
 Gauss-broadening in eV      SIGMA  =   0.05


--------------------------------------------------------------------------------------------------------


  energy-cutoff  :      360.00
  volume of cell :      202.32
      direct lattice vectors                 reciprocal lattice vectors
     3.858100176  0.000000000  0.000000000     0.259194929  0.000000000  0.000000000
     0.000000000  4.526575088  0.000000000     0.000000000  0.220917577  0.000000000
     0.000000000  0.000000000 11.585176468     0.000000000  0.000000000  0.086317200

  length of vectors
     3.858100176  4.526575088 11.585176468     0.259194929  0.220917577  0.086317200


 
 k-points in units of 2pi/SCALE and weight: KPOINTS created by Atomic Simulation Env
   0.00000000  0.00000000  0.00000000       0.014
   0.04319915  0.00000000  0.00000000       0.028
   0.08639831  0.00000000  0.00000000       0.028
   0.12959746  0.00000000  0.00000000       0.014
   0.00000000  0.03681960  0.00000000       0.028
   0.04319915  0.03681960  0.00000000       0.028
   0.04319915 -0.03681960  0.00000000       0.028
   0.08639831  0.03681960  0.00000000       0.028
   0.08639831 -0.03681960  0.00000000       0.028
   0.12959746  0.03681960  0.00000000       0.028
   0.00000000  0.07363919  0.00000000       0.028
   0.04319915  0.07363919  0.00000000       0.028
   0.04319915 -0.07363919  0.00000000       0.028
   0.08639831  0.07363919  0.00000000       0.028
   0.08639831 -0.07363919  0.00000000       0.028
   0.12959746  0.07363919  0.00000000       0.028
   0.00000000  0.11045879  0.00000000       0.014
   0.04319915  0.11045879  0.00000000       0.028
   0.08639831  0.11045879  0.00000000       0.028
   0.12959746  0.11045879  0.00000000       0.014
   0.00000000  0.00000000  0.04315860       0.014
   0.04319915  0.00000000  0.04315860       0.028
   0.08639831  0.00000000  0.04315860       0.028
   0.12959746  0.00000000  0.04315860       0.014
   0.00000000  0.03681960  0.04315860       0.028
   0.04319915  0.03681960  0.04315860       0.028
   0.04319915 -0.03681960  0.04315860       0.028
   0.08639831  0.03681960  0.04315860       0.028
   0.08639831 -0.03681960  0.04315860       0.028
   0.12959746  0.03681960  0.04315860       0.028
   0.00000000  0.07363919  0.04315860       0.028
   0.04319915  0.07363919  0.04315860       0.028
   0.04319915 -0.07363919  0.04315860       0.028
   0.08639831  0.07363919  0.04315860       0.028
   0.08639831 -0.07363919  0.04315860       0.028
   0.12959746  0.07363919  0.04315860       0.028
   0.00000000  0.11045879  0.04315860       0.014
   0.04319915  0.11045879  0.04315860       0.028
   0.08639831  0.11045879  0.04315860       0.028
   0.12959746  0.11045879  0.04315860       0.014
 
 k-points in reciprocal lattice and weights: KPOINTS created by Atomic Simulation Env
   0.00000000  0.00000000  0.00000000       0.014
   0.16666667  0.00000000  0.00000000       0.028
   0.33333333  0.00000000  0.00000000       0.028
   0.50000000  0.00000000  0.00000000       0.014
   0.00000000  0.16666667  0.00000000       0.028
   0.16666667  0.16666667  0.00000000       0.028
   0.16666667 -0.16666667  0.00000000       0.028
   0.33333333  0.16666667  0.00000000       0.028
   0.33333333 -0.16666667  0.00000000       0.028
   0.50000000  0.16666667  0.00000000       0.028
   0.00000000  0.33333333  0.00000000       0.028
   0.16666667  0.33333333  0.00000000       0.028
   0.16666667 -0.33333333  0.00000000       0.028
   0.33333333  0.33333333  0.00000000       0.028
   0.33333333 -0.33333333  0.00000000       0.028
   0.50000000  0.33333333  0.00000000       0.028
   0.00000000  0.50000000  0.00000000       0.014
   0.16666667  0.50000000  0.00000000       0.028
   0.33333333  0.50000000  0.00000000       0.028
   0.50000000  0.50000000  0.00000000       0.014
   0.00000000  0.00000000  0.50000000       0.014
   0.16666667  0.00000000  0.50000000       0.028
   0.33333333  0.00000000  0.50000000       0.028
   0.50000000  0.00000000  0.50000000       0.014
   0.00000000  0.16666667  0.50000000       0.028
   0.16666667  0.16666667  0.50000000       0.028
   0.16666667 -0.16666667  0.50000000       0.028
   0.33333333  0.16666667  0.50000000       0.028
   0.33333333 -0.16666667  0.50000000       0.028
   0.50000000  0.16666667  0.50000000       0.028
   0.00000000  0.33333333  0.50000000       0.028
   0.16666667  0.33333333  0.50000000       0.028
   0.16666667 -0.33333333  0.50000000       0.028
   0.33333333  0.33333333  0.50000000       0.028
   0.33333333 -0.33333333  0.50000000       0.028
   0.50000000  0.33333333  0.50000000       0.028
   0.00000000  0.50000000  0.50000000       0.014
   0.16666667  0.50000000  0.50000000       0.028
   0.33333333  0.50000000  0.50000000       0.028
   0.50000000  0.50000000  0.50000000       0.014
 
 position of ions in fractional coordinates (direct lattice) 
   0.33695652  0.16870713  0.13197174
   0.83695649  0.66870711  0.36802823
   0.74999985  0.90375655  0.86802825
   0.24999978  0.40375650  0.63197176
   0.33695651  0.05192947  0.35110993
   0.83695653  0.55192949  0.14889005
   0.74999976  0.02053415  0.64889008
   0.24999984  0.52053418  0.85110995
 
 position of ions in cartesian coordinates  (Angst):
   1.30001203  0.76366547  1.52891595
   3.22906198  3.02695296  4.26367197
   2.89357457  4.09092188 10.05626045
   0.96452420  1.82763412  7.32150435
   1.30001197  0.23506266  4.06767047
   3.22906212  2.49835030  1.72491749
   2.89357421  0.09294938  7.51750603
   0.96452442  2.35623703  9.86025892
 


--------------------------------------------------------------------------------------------------------


 k-point   1 :   0.0000 0.0000 0.0000  plane waves:    3119
 k-point   2 :   0.1667 0.0000 0.0000  plane waves:    3116
 k-point   3 :   0.3333 0.0000 0.0000  plane waves:    3142
 k-point   4 :   0.5000 0.0000 0.0000  plane waves:    3148
 k-point   5 :   0.0000 0.1667 0.0000  plane waves:    3108
 k-point   6 :   0.1667 0.1667 0.0000  plane waves:    3123
 k-point   7 :   0.1667-0.1667 0.0000  plane waves:    3123
 k-point   8 :   0.3333 0.1667 0.0000  plane waves:    3135
 k-point   9 :   0.3333-0.1667 0.0000  plane waves:    3135
 k-point  10 :   0.5000 0.1667 0.0000  plane waves:    3138
 k-point  11 :   0.0000 0.3333 0.0000  plane waves:    3116
 k-point  12 :   0.1667 0.3333 0.0000  plane waves:    3133
 k-point  13 :   0.1667-0.3333 0.0000  plane waves:    3133
 k-point  14 :   0.3333 0.3333 0.0000  plane waves:    3155
 k-point  15 :   0.3333-0.3333 0.0000  plane waves:    3155
 k-point  16 :   0.5000 0.3333 0.0000  plane waves:    3152
 k-point  17 :   0.0000 0.5000 0.0000  plane waves:    3134
 k-point  18 :   0.1667 0.5000 0.0000  plane waves:    3140
 k-point  19 :   0.3333 0.5000 0.0000  plane waves:    3144
 k-point  20 :   0.5000 0.5000 0.0000  plane waves:    3144
 k-point  21 :   0.0000 0.0000 0.5000  plane waves:    3092
 k-point  22 :   0.1667 0.0000 0.5000  plane waves:    3124
 k-point  23 :   0.3333 0.0000 0.5000  plane waves:    3140
 k-point  24 :   0.5000 0.0000 0.5000  plane waves:    3132
 k-point  25 :   0.0000 0.1667 0.5000  plane waves:    3112
 k-point  26 :   0.1667 0.1667 0.5000  plane waves:    3140
 k-point  27 :   0.1667-0.1667 0.5000  plane waves:    3140
 k-point  28 :   0.3333 0.1667 0.5000  plane waves:    3134
 k-point  29 :   0.3333-0.1667 0.5000  plane waves:    3134
 k-point  30 :   0.5000 0.1667 0.5000  plane waves:    3144
 k-point  31 :   0.0000 0.3333 0.5000  plane waves:    3130
 k-point  32 :   0.1667 0.3333 0.5000  plane waves:    3148
 k-point  33 :   0.1667-0.3333 0.5000  plane waves:    3148
 k-point  34 :   0.3333 0.3333 0.5000  plane waves:    3142
 k-point  35 :   0.3333-0.3333 0.5000  plane waves:    3142
 k-point  36 :   0.5000 0.3333 0.5000  plane waves:    3152
 k-point  37 :   0.0000 0.5000 0.5000  plane waves:    3132
 k-point  38 :   0.1667 0.5000 0.5000  plane waves:    3148
 k-point  39 :   0.3333 0.5000 0.5000  plane waves:    3140
 k-point  40 :   0.5000 0.5000 0.5000  plane waves:    3160

 maximum and minimum number of plane-waves per node :       659      606

 maximum number of plane-waves:      3160
 maximum index in each direction: 
   IXMAX=    5   IYMAX=    7   IZMAX=   17
   IXMIN=   -6   IYMIN=   -7   IZMIN=  -18


 parallel 3D FFT for wavefunctions:
    minimum data exchange during FFTs selected (reduces bandwidth)
 parallel 3D FFT for charge:
    minimum data exchange during FFTs selected (reduces bandwidth)


 total amount of memory used by VASP MPI-rank0    37119. kBytes
=======================================================================

   base      :      30000. kBytes
   nonl-proj :       5406. kBytes
   fftplans  :        334. kBytes
   grid      :        503. kBytes
   one-center:         16. kBytes
   wavefun   :        860. kBytes
 
     INWAV:  cpu time      0.0000: real time      0.0001
 Broyden mixing: mesh for mixing (old mesh)
   NGX = 11   NGY = 15   NGZ = 35
  (NGX  = 36   NGY  = 48   NGZ  =108)
  gives a total of   5775 points

 initial charge density was supplied:
 charge density of overlapping atoms calculated
 number of electron      40.0000000 magnetization 
 keeping initial charge density in first step


--------------------------------------------------------------------------------------------------------


 Maximum index for augmentation-charges           298 (set IRDMAX)


--------------------------------------------------------------------------------------------------------


 First call to EWALD:  gamma=   0.302
 Maximum number of real-space cells 4x 3x 2
 Maximum number of reciprocal cells 2x 2x 5

    FEWALD:  cpu time      0.0010: real time      0.0010


--------------------------------------- Ionic step        1  -------------------------------------------




--------------------------------------- Iteration      1(   1)  ---------------------------------------


    POTLOK:  cpu time      0.0088: real time      0.0089
    SETDIJ:  cpu time      0.2187: real time      0.2192
     EDDAV:  cpu time      0.3105: real time      0.3124
       DOS:  cpu time      0.0010: real time      0.0010
    --------------------------------------------
      LOOP:  cpu time      0.5391: real time      0.5416

 eigenvalue-minimisations  :  2560
 total energy-change (2. order) : 0.1326305E+03  (-0.1286626E+04)
 number of electron      40.0000000 magnetization 
 augmentation part       40.0000000 magnetization 

 Free energy of the ion-electron system (eV)
  ---------------------------------------------------
  alpha Z        PSCENC =        83.74935623
  Ewald energy   TEWEN  =     -1383.47235218
  -Hartree energ DENC   =      -146.30193417
  -exchange      EXHF   =         0.00000000
  -V(xc)+E(xc)   XCENC  =       -33.80164124
  PAW double counting   =      1193.78262552    -1080.73714043
  entropy T*S    EENTRO =        -0.00418940
  eigenvalues    EBANDS =        50.93117989
  atomic energy  EATOM  =      1448.48460880
  Solvation  Ediel_sol  =         0.00000000
  ---------------------------------------------------
  free energy    TOTEN  =       132.63051302 eV

  energy without entropy =      132.63470242  energy(sigma->0) =      132.63260772


--------------------------------------------------------------------------------------------------------




--------------------------------------- Iteration      1(   2)  ---------------------------------------


     EDDAV:  cpu time      0.4304: real time      0.4337
       DOS:  cpu time      0.0005: real time      0.0005
    --------------------------------------------
      LOOP:  cpu time      0.4309: real time      0.4342

 eigenvalue-minimisations  :  3744
 total energy-change (2. order) :-0.1578214E+03  (-0.1531209E+03)
 number of electron      40.0000000 magnetization 
 augmentation part       40.0000000 magnetization 

 Free energy of the ion-electron system (eV)
  ---------------------------------------------------
  alpha Z        PSCENC =        83.74935623
  Ewald energy   TEWEN  =     -1383.47235218
  -Hartree energ DENC   =      -146.30193417
  -exchange      EXHF   =         0.00000000
  -V(xc)+E(xc)   XCENC  =       -33.80164124
  PAW double counting   =      1193.78262552    -1080.73714043
  entropy T*S    EENTRO =        -0.00000000
  eigenvalues    EBANDS =      -106.89438347
  atomic energy  EATOM  =      1448.48460880
  Solvation  Ediel_sol  =         0.00000000
  ---------------------------------------------------
  free energy    TOTEN  =       -25.19086095 eV

  energy without entropy =      -25.19086095  energy(sigma->0) =      -25.19086095


--------------------------------------------------------------------------------------------------------




--------------------------------------- Iteration      1(   3)  ---------------------------------------


     EDDAV:  cpu time      0.3660: real time      0.3682
       DOS:  cpu time      0.0006: real time      0.0006
    --------------------------------------------
      LOOP:  cpu time      0.3666: real time      0.3687

 eigenvalue-minimisations  :  3216
 total energy-change (2. order) :-0.8960751E+01  (-0.8940112E+01)
 number of electron      40.0000000 magnetization 
 augmentation part       40.0000000 magnetization 

 Free energy of the ion-electron system (eV)
  ---------------------------------------------------
  alpha Z        PSCENC =        83.74935623
  Ewald energy   TEWEN  =     -1383.47235218
  -Hartree energ DENC   =      -146.30193417
  -exchange      EXHF   =         0.00000000
  -V(xc)+E(xc)   XCENC  =       -33.80164124
  PAW double counting   =      1193.78262552    -1080.73714043
  entropy T*S    EENTRO =        -0.00000000
  eigenvalues    EBANDS =      -115.85513497
  atomic energy  EATOM  =      1448.48460880
  Solvation  Ediel_sol  =         0.00000000
  ---------------------------------------------------
  free energy    TOTEN  =       -34.15161244 eV

  energy without entropy =      -34.15161244  energy(sigma->0) =      -34.15161244


--------------------------------------------------------------------------------------------------------




--------------------------------------- Iteration      1(   4)  ---------------------------------------


     EDDAV:  cpu time      0.3971: real time      0.3995
       DOS:  cpu time      0.0007: real time      0.0007
    --------------------------------------------
      LOOP:  cpu time      0.3978: real time      0.4002

 eigenvalue-minimisations  :  3232
 total energy-change (2. order) :-0.6309037E-01  (-0.6308059E-01)
 number of electron      40.0000000 magnetization 
 augmentation part       40.0000000 magnetization 

 Free energy of the ion-electron system (eV)
  ---------------------------------------------------
  alpha Z        PSCENC =        83.74935623
  Ewald energy   TEWEN  =     -1383.47235218
  -Hartree energ DENC   =      -146.30193417
  -exchange      EXHF   =         0.00000000
  -V(xc)+E(xc)   XCENC  =       -33.80164124
  PAW double counting   =      1193.78262552    -1080.73714043
  entropy T*S    EENTRO =        -0.00000000
  eigenvalues    EBANDS =      -115.91822534
  atomic energy  EATOM  =      1448.48460880
  Solvation  Ediel_sol  =         0.00000000
  ---------------------------------------------------
  free energy    TOTEN  =       -34.21470281 eV

  energy without entropy =      -34.21470281  energy(sigma->0) =      -34.21470281


--------------------------------------------------------------------------------------------------------




--------------------------------------- Iteration      1(   5)  ---------------------------------------


     EDDAV:  cpu time      0.4020: real time      0.4047
       DOS:  cpu time      0.0005: real time      0.0005
    CHARGE:  cpu time      0.0305: real time      0.0306
    MIXING:  cpu time      0.0004: real time      0.0004
    --------------------------------------------
      LOOP:  cpu time      0.4334: real time      0.4363

 eigenvalue-minimisations  :  3200
 total energy-change (2. order) :-0.4212550E-03  (-0.4212488E-03)
 number of electron      39.9999966 magnetization 
 augmentation part       -7.4150919 magnetization 

 Broyden mixing:
  rms(total) = 0.64401E+00    rms(broyden)= 0.64399E+00
  rms(prec ) = 0.72503E+00
  weight for this iteration     100.00

 Free energy of the ion-electron system (eV)
  ---------------------------------------------------
  alpha Z        PSCENC =        83.74935623
  Ewald energy   TEWEN  =     -1383.47235218
  -Hartree energ DENC   =      -146.30193417
  -exchange      EXHF   =         0.00000000
  -V(xc)+E(xc)   XCENC  =       -33.80164124
  PAW double counting   =      1193.78262552    -1080.73714043
  entropy T*S    EENTRO =        -0.00000000
  eigenvalues    EBANDS =      -115.91864660
  atomic energy  EATOM  =      1448.48460880
  Solvation  Ediel_sol  =         0.00000000
  ---------------------------------------------------
  free energy    TOTEN  =       -34.21512407 eV

  energy without entropy =      -34.21512407  energy(sigma->0) =      -34.21512407


--------------------------------------------------------------------------------------------------------




--------------------------------------- Iteration      1(   6)  ---------------------------------------


    POTLOK:  cpu time      0.0088: real time      0.0089
    SETDIJ:  cpu time      0.2161: real time      0.2166
     EDDAV:  cpu time      0.3655: real time      0.3677
       DOS:  cpu time      0.0005: real time      0.0005
    CHARGE:  cpu time      0.0054: real time      0.0055
    MIXING:  cpu time      0.0005: real time      0.0005
    --------------------------------------------
      LOOP:  cpu time      0.5968: real time      0.5997

 eigenvalue-minimisations  :  3088
 total energy-change (2. order) : 0.3988646E+00  (-0.8176962E-01)
 number of electron      39.9999967 magnetization 
 augmentation part       -7.3544694 magnetization 

 Broyden mixing:
  rms(total) = 0.40438E+00    rms(broyden)= 0.40438E+00
  rms(prec ) = 0.42520E+00
  weight for this iteration     100.00

 eigenvalues of (default mixing * dielectric matrix)
  average eigenvalue GAMMA=   2.1690
  2.1690

 Free energy of the ion-electron system (eV)
  ---------------------------------------------------
  alpha Z        PSCENC =        83.74935623
  Ewald energy   TEWEN  =     -1383.47235218
  -Hartree energ DENC   =      -152.55242310
  -exchange      EXHF   =         0.00000000
  -V(xc)+E(xc)   XCENC  =       -33.17782882
  PAW double counting   =      1453.30700495    -1340.57679112
  entropy T*S    EENTRO =        -0.00000000
  eigenvalues    EBANDS =      -109.57783424
  atomic energy  EATOM  =      1448.48460880
  Solvation  Ediel_sol  =         0.00000000
  ---------------------------------------------------
  free energy    TOTEN  =       -33.81625949 eV

  energy without entropy =      -33.81625949  energy(sigma->0) =      -33.81625949


--------------------------------------------------------------------------------------------------------




--------------------------------------- Iteration      1(   7)  ---------------------------------------


    POTLOK:  cpu time      0.0077: real time      0.0078
    SETDIJ:  cpu time      0.2165: real time      0.2174
     EDDAV:  cpu time      0.3558: real time      0.3581
       DOS:  cpu time      0.0005: real time      0.0005
    CHARGE:  cpu time      0.0053: real time      0.0054
    MIXING:  cpu time      0.0004: real time      0.0005
    --------------------------------------------
      LOOP:  cpu time      0.5863: real time      0.5897

 eigenvalue-minimisations  :  3008
 total energy-change (2. order) : 0.9942951E-02  (-0.2407657E-01)
 number of electron      39.9999968 magnetization 
 augmentation part       -7.3387871 magnetization 

 Broyden mixing:
  rms(total) = 0.13071E+00    rms(broyden)= 0.13071E+00
  rms(prec ) = 0.13925E+00
  weight for this iteration     100.00

 eigenvalues of (default mixing * dielectric matrix)
  average eigenvalue GAMMA=   1.7952
  1.2048  2.3855

 Free energy of the ion-electron system (eV)
  ---------------------------------------------------
  alpha Z        PSCENC =        83.74935623
  Ewald energy   TEWEN  =     -1383.47235218
  -Hartree energ DENC   =      -155.40127401
  -exchange      EXHF   =         0.00000000
  -V(xc)+E(xc)   XCENC  =       -32.69004727
  PAW double counting   =      1773.51292338    -1661.01340727
  entropy T*S    EENTRO =        -0.00000000
  eigenvalues    EBANDS =      -106.97612422
  atomic energy  EATOM  =      1448.48460880
  Solvation  Ediel_sol  =         0.00000000
  ---------------------------------------------------
  free energy    TOTEN  =       -33.80631654 eV

  energy without entropy =      -33.80631654  energy(sigma->0) =      -33.80631654


--------------------------------------------------------------------------------------------------------




--------------------------------------- Iteration      1(   8)  ---------------------------------------


    POTLOK:  cpu time      0.0078: real time      0.0079
    SETDIJ:  cpu time      0.2168: real time      0.2174
     EDDAV:  cpu time      0.3797: real time      0.3821
       DOS:  cpu time      0.0006: real time      0.0006
    CHARGE:  cpu time      0.0055: real time      0.0055
    MIXING:  cpu time      0.0005: real time      0.0005
    --------------------------------------------
      LOOP:  cpu time      0.6108: real time      0.6139

 eigenvalue-minimisations  :  3088
 total energy-change (2. order) : 0.1444852E-02  (-0.2477437E-02)
 number of electron      39.9999968 magnetization 
 augmentation part       -7.3479215 magnetization 

 Broyden mixing:
  rms(total) = 0.17980E-01    rms(broyden)= 0.17980E-01
  rms(prec ) = 0.21909E-01
  weight for this iteration     100.00

 eigenvalues of (default mixing * dielectric matrix)
  average eigenvalue GAMMA=   1.6958
  2.5102  1.2885  1.2885

 Free energy of the ion-electron system (eV)
  ---------------------------------------------------
  alpha Z        PSCENC =        83.74935623
  Ewald energy   TEWEN  =     -1383.47235218
  -Hartree energ DENC   =      -155.50416882
  -exchange      EXHF   =         0.00000000
  -V(xc)+E(xc)   XCENC  =       -32.54608937
  PAW double counting   =      1911.38215194    -1798.93920209
  entropy T*S    EENTRO =        -0.00000000
  eigenvalues    EBANDS =      -106.95917619
  atomic energy  EATOM  =      1448.48460880
  Solvation  Ediel_sol  =         0.00000000
  ---------------------------------------------------
  free energy    TOTEN  =       -33.80487168 eV

  energy without entropy =      -33.80487168  energy(sigma->0) =      -33.80487168


--------------------------------------------------------------------------------------------------------




--------------------------------------- Iteration      1(   9)  ---------------------------------------


    POTLOK:  cpu time      0.0077: real time      0.0078
    SETDIJ:  cpu time      0.2180: real time      0.2186
     EDDAV:  cpu time      0.3796: real time      0.3818
       DOS:  cpu time      0.0006: real time      0.0006
    CHARGE:  cpu time      0.0055: real time      0.0055
    MIXING:  cpu time      0.0005: real time      0.0005
    --------------------------------------------
      LOOP:  cpu time      0.6118: real time      0.6148

 eigenvalue-minimisations  :  3184
 total energy-change (2. order) :-0.2934753E-03  (-0.3813087E-03)
 number of electron      39.9999968 magnetization 
 augmentation part       -7.3456347 magnetization 

 Broyden mixing:
  rms(total) = 0.66757E-02    rms(broyden)= 0.66756E-02
  rms(prec ) = 0.74600E-02
  weight for this iteration     100.00

 eigenvalues of (default mixing * dielectric matrix)
  average eigenvalue GAMMA=   1.7491
  2.3248  2.3248  1.1734  1.1734

 Free energy of the ion-electron system (eV)
  ---------------------------------------------------
  alpha Z        PSCENC =        83.74935623
  Ewald energy   TEWEN  =     -1383.47235218
  -Hartree energ DENC   =      -155.91525579
  -exchange      EXHF   =         0.00000000
  -V(xc)+E(xc)   XCENC  =       -32.50263612
  PAW double counting   =      1925.24092606    -1812.80799286
  entropy T*S    EENTRO =        -0.00000000
  eigenvalues    EBANDS =      -106.58181929
  atomic energy  EATOM  =      1448.48460880
  Solvation  Ediel_sol  =         0.00000000
  ---------------------------------------------------
  free energy    TOTEN  =       -33.80516516 eV

  energy without entropy =      -33.80516516  energy(sigma->0) =      -33.80516516


--------------------------------------------------------------------------------------------------------




--------------------------------------- Iteration      1(  10)  ---------------------------------------


    POTLOK:  cpu time      0.0077: real time      0.0078
    SETDIJ:  cpu time      0.2155: real time      0.2162
     EDDAV:  cpu time      0.3576: real time      0.3611
       DOS:  cpu time      0.0005: real time      0.0005
    CHARGE:  cpu time      0.0054: real time      0.0054
    MIXING:  cpu time      0.0005: real time      0.0005
    --------------------------------------------
      LOOP:  cpu time      0.5871: real time      0.5915

 eigenvalue-minimisations  :  3024
 total energy-change (2. order) :-0.1077693E-03  (-0.3052639E-04)
 number of electron      39.9999968 magnetization 
 augmentation part       -7.3455678 magnetization 

 Broyden mixing:
  rms(total) = 0.24375E-02    rms(broyden)= 0.24375E-02
  rms(prec ) = 0.29150E-02
  weight for this iteration     100.00

 eigenvalues of (default mixing * dielectric matrix)
  average eigenvalue GAMMA=   1.7638
  2.7595  2.4672  1.1379  1.2272  1.2272

 Free energy of the ion-electron system (eV)
  ---------------------------------------------------
  alpha Z        PSCENC =        83.74935623
  Ewald energy   TEWEN  =     -1383.47235218
  -Hartree energ DENC   =      -155.94712937
  -exchange      EXHF   =         0.00000000
  -V(xc)+E(xc)   XCENC  =       -32.49964992
  PAW double counting   =      1918.33161007    -1805.89318242
  entropy T*S    EENTRO =        -0.00000000
  eigenvalues    EBANDS =      -106.55853414
  atomic energy  EATOM  =      1448.48460880
  Solvation  Ediel_sol  =         0.00000000
  ---------------------------------------------------
  free energy    TOTEN  =       -33.80527293 eV

  energy without entropy =      -33.80527293  energy(sigma->0) =      -33.80527293


--------------------------------------------------------------------------------------------------------




--------------------------------------- Iteration      1(  11)  ---------------------------------------


    POTLOK:  cpu time      0.0078: real time      0.0079
    SETDIJ:  cpu time      0.2164: real time      0.2169
     EDDAV:  cpu time      0.3770: real time      0.3791
       DOS:  cpu time      0.0006: real time      0.0006
    CHARGE:  cpu time      0.0054: real time      0.0054
    MIXING:  cpu time      0.0005: real time      0.0005
    --------------------------------------------
      LOOP:  cpu time      0.6076: real time      0.6104

 eigenvalue-minimisations  :  3024
 total energy-change (2. order) :-0.2973391E-04  (-0.4057645E-05)
 number of electron      39.9999968 magnetization 
 augmentation part       -7.3457854 magnetization 

 Broyden mixing:
  rms(total) = 0.12421E-02    rms(broyden)= 0.12421E-02
  rms(prec ) = 0.13773E-02
  weight for this iteration     100.00

 eigenvalues of (default mixing * dielectric matrix)
  average eigenvalue GAMMA=   1.7335
  2.5744  2.5744  1.9861  1.1637  1.1637  0.9386

 Free energy of the ion-electron system (eV)
  ---------------------------------------------------
  alpha Z        PSCENC =        83.74935623
  Ewald energy   TEWEN  =     -1383.47235218
  -Hartree energ DENC   =      -155.97609490
  -exchange      EXHF   =         0.00000000
  -V(xc)+E(xc)   XCENC  =       -32.49290901
  PAW double counting   =      1919.97232423    -1807.53424452
  entropy T*S    EENTRO =        -0.00000000
  eigenvalues    EBANDS =      -106.53599131
  atomic energy  EATOM  =      1448.48460880
  Solvation  Ediel_sol  =         0.00000000
  ---------------------------------------------------
  free energy    TOTEN  =       -33.80530266 eV

  energy without entropy =      -33.80530266  energy(sigma->0) =      -33.80530266


--------------------------------------------------------------------------------------------------------




--------------------------------------- Iteration      1(  12)  ---------------------------------------


    POTLOK:  cpu time      0.0075: real time      0.0077
    SETDIJ:  cpu time      0.2168: real time      0.2175
     EDDAV:  cpu time      0.4018: real time      0.4040
       DOS:  cpu time      0.0006: real time      0.0006
    --------------------------------------------
      LOOP:  cpu time      0.6266: real time      0.6298

 eigenvalue-minimisations  :  3344
 total energy-change (2. order) :-0.2787445E-06  (-0.5899043E-06)
 number of electron      39.9999968 magnetization 
 augmentation part       -7.3457854 magnetization 

 Free energy of the ion-electron system (eV)
  ---------------------------------------------------
  alpha Z        PSCENC =        83.74935623
  Ewald energy   TEWEN  =     -1383.47235218
  -Hartree energ DENC   =      -155.98851771
  -exchange      EXHF   =         0.00000000
  -V(xc)+E(xc)   XCENC  =       -32.49195902
  PAW double counting   =      1919.16829821    -1806.72999775
  entropy T*S    EENTRO =        -0.00000000
  eigenvalues    EBANDS =      -106.52473952
  atomic energy  EATOM  =      1448.48460880
  Solvation  Ediel_sol  =         0.00000000
  ---------------------------------------------------
  free energy    TOTEN  =       -33.80530294 eV

  energy without entropy =      -33.80530294  energy(sigma->0) =      -33.80530294


--------------------------------------------------------------------------------------------------------




 average (electrostatic) potential at core
  the test charge radii are     1.1631  1.0808
  (the norm of the test charge is              1.0000)
       1 -33.8169       2 -33.8169       3 -33.8169       4 -33.8169       5 -55.2998
       6 -55.2998       7 -55.2999       8 -55.2999
 
 
 
 E-fermi :   3.1582     XC(G=0):  -9.0755     alpha+bet : -8.3433

 Fermi energy:         3.1581715079

 k-point     1 :       0.0000    0.0000    0.0000
  band No.  band energies     occupation 
      1     -11.2232      2.00000
      2     -11.0011      2.00000
      3      -9.9626      2.00000
      4      -9.6184      2.00000
      5      -4.8872      2.00000
      6      -4.5442      2.00000
      7      -2.7933      2.00000
      8      -2.6928      2.00000
      9      -2.0588      2.00000
     10      -0.7003      2.00000
     11      -0.5702      2.00000
     12      -0.4193      2.00000
     13      -0.0766      2.00000
     14       0.1463      2.00000
     15       1.0168      2.00000
     16       1.1544      2.00000
     17       1.4913      2.00000
     18       1.6935      2.00000
     19       2.1919      2.00000
     20       2.7905      2.00000
     21       3.6643      0.00000
     22       5.5405      0.00000
     23       5.5742      0.00000
     24       5.6989      0.00000
     25       5.9105      0.00000
     26       6.0259      0.00000
     27       6.6504      0.00000
     28       6.9128      0.00000
     29       8.1238      0.00000
     30       8.1530      0.00000
     31       8.3111      0.00000
     32       8.4702      0.00000

 k-point     2 :       0.1667    0.0000    0.0000
  band No.  band energies     occupation 
      1     -11.0366      2.00000
      2     -10.8246      2.00000
      3      -9.8565      2.00000
      4      -9.5536      2.00000
      5      -5.1009      2.00000
      6      -4.7771      2.00000
      7      -3.3022      2.00000
      8      -3.1276      2.00000
      9      -1.8425      2.00000
     10      -0.5496      2.00000
     11      -0.5082      2.00000
     12      -0.3912      2.00000
     13      -0.1474      2.00000
     14      -0.0148      2.00000
     15       0.9513      2.00000
     16       1.0222      2.00000
     17       1.2854      2.00000
     18       2.0183      2.00000
     19       2.1588      2.00000
     20       2.5873      2.00000
     21       3.8023      0.00000
     22       5.2402      0.00000
     23       5.4549      0.00000
     24       5.9817      0.00000
     25       6.1611      0.00000
     26       6.2838      0.00000
     27       6.4512      0.00000
     28       6.5535      0.00000
     29       7.1030      0.00000
     30       7.7438      0.00000
     31       7.7711      0.00000
     32       8.2685      0.00000

 k-point     3 :       0.3333    0.0000    0.0000
  band No.  band energies     occupation 
      1     -10.5287      2.00000
      2     -10.3560      2.00000
      3      -9.6903      2.00000
      4      -9.5266      2.00000
      5      -5.5268      2.00000
      6      -5.1897      2.00000
      7      -4.4841      2.00000
      8      -4.1175      2.00000
      9      -1.2364      2.00000
     10      -0.5090      2.00000
     11      -0.2909      2.00000
     12       0.0406      2.00000
     13       0.2076      2.00000
     14       0.3295      2.00000
     15       0.8609      2.00000
     16       1.0222      2.00000
     17       1.4444      2.00000
     18       1.7193      2.00000
     19       2.1715      2.00000
     20       2.1778      2.00000
     21       3.9767      0.00000
     22       4.1479      0.00000
     23       4.3304      0.00000
     24       5.0493      0.00000
     25       5.1969      0.00000
     26       5.4907      0.00000
     27       5.5247      0.00000
     28       6.3629      0.00000
     29       6.4872      0.00000
     30       6.7421      0.00000
     31       6.9053      0.00000
     32       8.0400      0.00000

 k-point     4 :       0.5000    0.0000    0.0000
  band No.  band energies     occupation 
      1      -9.9096      2.00000
      2      -9.9096      2.00000
      3      -9.8284      2.00000
      4      -9.8284      2.00000
      5      -5.4186      2.00000
      6      -5.4186      2.00000
      7      -5.0142      2.00000
      8      -5.0142      2.00000
      9      -0.4938      2.00000
     10      -0.4938      2.00000
     11       0.1369      2.00000
     12       0.1369      2.00000
     13       0.5091      2.00000
     14       0.5091      2.00000
     15       0.9573      2.00000
     16       0.9573      2.00000
     17       1.4759      2.00000
     18       1.4759      2.00000
     19       1.8522      2.00000
     20       1.8522      2.00000
     21       3.9730      0.00000
     22       3.9730      0.00000
     23       4.2763      0.00000
     24       4.2763      0.00000
     25       4.9087      0.00000
     26       4.9087      0.00000
     27       5.2413      0.00000
     28       5.2413      0.00000
     29       5.9138      0.00000
     30       5.9138      0.00000
     31       7.4252      0.00000
     32       7.4252      0.00000

 k-point     5 :       0.0000    0.1667    0.0000
  band No.  band energies     occupation 
      1     -11.1105      2.00000
      2     -10.8915      2.00000
      3      -9.9806      2.00000
      4      -9.6646      2.00000
      5      -5.1937      2.00000
      6      -4.6949      2.00000
      7      -3.5506      2.00000
      8      -3.1370      2.00000
      9      -1.8160      2.00000
     10      -0.3244      2.00000
     11      -0.0597      2.00000
     12       0.0563      2.00000
     13       0.0755      2.00000
     14       0.2794      2.00000
     15       1.1833      2.00000
     16       1.4378      2.00000
     17       1.5378      2.00000
     18       1.7987      2.00000
     19       2.1427      2.00000
     20       2.6456      2.00000
     21       3.7291      0.00000
     22       5.0787      0.00000
     23       5.5619      0.00000
     24       5.5901      0.00000
     25       5.7787      0.00000
     26       6.1520      0.00000
     27       6.3578      0.00000
     28       6.5461      0.00000
     29       7.4406      0.00000
     30       7.5208      0.00000
     31       7.9224      0.00000
     32       8.4131      0.00000

 k-point     6 :       0.1667    0.1667    0.0000
  band No.  band energies     occupation 
      1     -10.9296      2.00000
      2     -10.7207      2.00000
      3      -9.8742      2.00000
      4      -9.5960      2.00000
      5      -5.2527      2.00000
      6      -4.8267      2.00000
      7      -3.6662      2.00000
      8      -3.4927      2.00000
      9      -1.6556      2.00000
     10      -1.0438      2.00000
     11      -0.8335      2.00000
     12      -0.1843      2.00000
     13       0.4537      2.00000
     14       0.6165      2.00000
     15       0.8369      2.00000
     16       0.8676      2.00000
     17       1.7981      2.00000
     18       1.9101      2.00000
     19       2.3129      2.00000
     20       2.4695      2.00000
     21       3.9221      0.00000
     22       4.8400      0.00000
     23       5.1802      0.00000
     24       5.4656      0.00000
     25       6.0082      0.00000
     26       6.3481      0.00000
     27       6.4816      0.00000
     28       6.8114      0.00000
     29       7.2636      0.00000
     30       7.4839      0.00000
     31       7.5421      0.00000
     32       8.2522      0.00000

 k-point     7 :       0.1667   -0.1667    0.0000
  band No.  band energies     occupation 
      1     -10.9292      2.00000
      2     -10.7210      2.00000
      3      -9.8752      2.00000
      4      -9.5941      2.00000
      5      -5.2776      2.00000
      6      -4.8023      2.00000
      7      -3.7713      2.00000
      8      -3.3776      2.00000
      9      -1.6447      2.00000
     10      -1.0368      2.00000
     11      -0.8175      2.00000
     12      -0.2259      2.00000
     13       0.4649      2.00000
     14       0.6376      2.00000
     15       0.7642      2.00000
     16       0.9121      2.00000
     17       1.7936      2.00000
     18       1.8453      2.00000
     19       2.2673      2.00000
     20       2.6082      2.00000
     21       3.8693      0.00000
     22       4.8680      0.00000
     23       5.0962      0.00000
     24       5.4458      0.00000
     25       6.0062      0.00000
     26       6.4652      0.00000
     27       6.6005      0.00000
     28       6.9316      0.00000
     29       7.1292      0.00000
     30       7.2575      0.00000
     31       7.5321      0.00000
     32       8.5869      0.00000

 k-point     8 :       0.3333    0.1667    0.0000
  band No.  band energies     occupation 
      1     -10.4425      2.00000
      2     -10.2737      2.00000
      3      -9.6964      2.00000
      4      -9.5448      2.00000
      5      -5.4526      2.00000
      6      -5.1173      2.00000
      7      -4.4626      2.00000
      8      -4.2423      2.00000
      9      -1.3050      2.00000
     10      -1.1508      2.00000
     11      -1.0906      2.00000
     12      -0.2926      2.00000
     13       0.3510      2.00000
     14       0.5279      2.00000
     15       0.7191      2.00000
     16       0.9947      2.00000
     17       1.0924      2.00000
     18       1.8565      2.00000
     19       1.8668      2.00000
     20       2.1512      2.00000
     21       3.9282      0.00000
     22       4.6507      0.00000
     23       4.8749      0.00000
     24       4.9102      0.00000
     25       5.3350      0.00000
     26       6.0200      0.00000
     27       6.3920      0.00000
     28       6.6099      0.00000
     29       7.0709      0.00000
     30       7.2376      0.00000
     31       7.6113      0.00000
     32       7.9966      0.00000

 k-point     9 :       0.3333   -0.1667    0.0000
  band No.  band energies     occupation 
      1     -10.4412      2.00000
      2     -10.2748      2.00000
      3      -9.7009      2.00000
      4      -9.5390      2.00000
      5      -5.4840      2.00000
      6      -5.0864      2.00000
      7      -4.5404      2.00000
      8      -4.1584      2.00000
      9      -1.3382      2.00000
     10      -1.1310      2.00000
     11      -1.0284      2.00000
     12      -0.3089      2.00000
     13       0.2909      2.00000
     14       0.5421      2.00000
     15       0.5981      2.00000
     16       1.0480      2.00000
     17       1.2153      2.00000
     18       1.7685      2.00000
     19       1.8187      2.00000
     20       2.2641      2.00000
     21       3.8890      0.00000
     22       4.5791      0.00000
     23       4.7916      0.00000
     24       4.9950      0.00000
     25       5.4296      0.00000
     26       6.0073      0.00000
     27       6.4955      0.00000
     28       6.6896      0.00000
     29       6.7367      0.00000
     30       7.2354      0.00000
     31       7.9558      0.00000
     32       8.0267      0.00000

 k-point    10 :       0.5000    0.1667    0.0000
  band No.  band energies     occupation 
      1      -9.8724      2.00000
      2      -9.8655      2.00000
      3      -9.7954      2.00000
      4      -9.7881      2.00000
      5      -5.3260      2.00000
      6      -5.3167      2.00000
      7      -4.9615      2.00000
      8      -4.9507      2.00000
      9      -0.8242      2.00000
     10      -0.7817      2.00000
     11      -0.5326      2.00000
     12      -0.4173      2.00000
     13      -0.0632      2.00000
     14       0.0567      2.00000
     15       0.6130      2.00000
     16       0.6592      2.00000
     17       1.1842      2.00000
     18       1.2218      2.00000
     19       1.9819      2.00000
     20       2.0444      2.00000
     21       4.0462      0.00000
     22       4.0756      0.00000
     23       4.9475      0.00000
     24       5.0199      0.00000
     25       5.8307      0.00000
     26       5.9856      0.00000
     27       6.0034      0.00000
     28       6.0858      0.00000
     29       6.7365      0.00000
     30       6.7829      0.00000
     31       7.1593      0.00000
     32       7.1931      0.00000

 k-point    11 :       0.0000    0.3333    0.0000
  band No.  band energies     occupation 
      1     -10.8039      2.00000
      2     -10.5912      2.00000
      3     -10.1026      2.00000
      4      -9.8476      2.00000
      5      -5.5255      2.00000
      6      -4.8813      2.00000
      7      -4.6088      2.00000
      8      -3.9985      2.00000
      9      -1.2990      2.00000
     10       0.1310      2.00000
     11       0.4344      2.00000
     12       0.6295      2.00000
     13       0.6374      2.00000
     14       0.9575      2.00000
     15       1.1709      2.00000
     16       1.4045      2.00000
     17       1.4888      2.00000
     18       2.1847      2.00000
     19       2.4692      2.00000
     20       2.8878      2.00000
     21       4.0666      0.00000
     22       4.2576      0.00000
     23       4.5815      0.00000
     24       5.2388      0.00000
     25       5.5201      0.00000
     26       5.7030      0.00000
     27       6.0375      0.00000
     28       6.3367      0.00000
     29       6.3629      0.00000
     30       6.8870      0.00000
     31       7.2958      0.00000
     32       8.5193      0.00000

 k-point    12 :       0.1667    0.3333    0.0000
  band No.  band energies     occupation 
      1     -10.6401      2.00000
      2     -10.4387      2.00000
      3      -9.9884      2.00000
      4      -9.7602      2.00000
      5      -5.4384      2.00000
      6      -4.8445      2.00000
      7      -4.5424      2.00000
      8      -4.0724      2.00000
      9      -1.1674      2.00000
     10      -1.0413      2.00000
     11      -0.7900      2.00000
     12       0.0305      2.00000
     13       0.0986      2.00000
     14       0.6417      2.00000
     15       0.7871      2.00000
     16       1.3613      2.00000
     17       1.8158      2.00000
     18       2.1055      2.00000
     19       2.3814      2.00000
     20       2.4031      2.00000
     21       4.1755      0.00000
     22       4.8615      0.00000
     23       5.3344      0.00000
     24       5.3875      0.00000
     25       5.4419      0.00000
     26       5.9642      0.00000
     27       6.5160      0.00000
     28       7.0423      0.00000
     29       7.1240      0.00000
     30       7.3259      0.00000
     31       7.6918      0.00000
     32       8.1001      0.00000

 k-point    13 :       0.1667   -0.3333    0.0000
  band No.  band energies     occupation 
      1     -10.6392      2.00000
      2     -10.4395      2.00000
      3      -9.9901      2.00000
      4      -9.7576      2.00000
      5      -5.4462      2.00000
      6      -4.8404      2.00000
      7      -4.5878      2.00000
      8      -4.0196      2.00000
      9      -1.1439      2.00000
     10      -0.9981      2.00000
     11      -0.8050      2.00000
     12      -0.0807      2.00000
     13       0.1559      2.00000
     14       0.5360      2.00000
     15       0.7969      2.00000
     16       1.5032      2.00000
     17       1.9982      2.00000
     18       2.0367      2.00000
     19       2.1987      2.00000
     20       2.4090      2.00000
     21       4.1612      0.00000
     22       4.8563      0.00000
     23       5.3129      0.00000
     24       5.3638      0.00000
     25       5.4758      0.00000
     26       6.0322      0.00000
     27       6.5175      0.00000
     28       6.8597      0.00000
     29       7.1803      0.00000
     30       7.4105      0.00000
     31       7.5913      0.00000
     32       8.4376      0.00000

 k-point    14 :       0.3333    0.3333    0.0000
  band No.  band energies     occupation 
      1     -10.2170      2.00000
      2     -10.0597      2.00000
      3      -9.7614      2.00000
      4      -9.6248      2.00000
      5      -5.2964      2.00000
      6      -4.8886      2.00000
      7      -4.6092      2.00000
      8      -4.4680      2.00000
      9      -1.8719      2.00000
     10      -1.5792      2.00000
     11      -1.1366      2.00000
     12      -0.7559      2.00000
     13      -0.5761      2.00000
     14       0.1336      2.00000
     15       0.3839      2.00000
     16       0.5845      2.00000
     17       0.8228      2.00000
     18       1.7281      2.00000
     19       1.7766      2.00000
     20       1.9078      2.00000
     21       4.1810      0.00000
     22       5.6142      0.00000
     23       5.9797      0.00000
     24       6.0954      0.00000
     25       6.2832      0.00000
     26       6.5885      0.00000
     27       6.7648      0.00000
     28       7.3323      0.00000
     29       7.7434      0.00000
     30       7.9250      0.00000
     31       8.2748      0.00000
     32       8.9707      0.00000

 k-point    15 :       0.3333   -0.3333    0.0000
  band No.  band energies     occupation 
      1     -10.2140      2.00000
      2     -10.0626      2.00000
      3      -9.7681      2.00000
      4      -9.6166      2.00000
      5      -5.3155      2.00000
      6      -4.8725      2.00000
      7      -4.7299      2.00000
      8      -4.3348      2.00000
      9      -1.8779      2.00000
     10      -1.5457      2.00000
     11      -1.1516      2.00000
     12      -0.7261      2.00000
     13      -0.5857      2.00000
     14       0.0046      2.00000
     15       0.2556      2.00000
     16       0.8268      2.00000
     17       1.0057      2.00000
     18       1.3544      2.00000
     19       1.6263      2.00000
     20       2.2743      2.00000
     21       4.1073      0.00000
     22       5.6031      0.00000
     23       5.8128      0.00000
     24       6.0653      0.00000
     25       6.3934      0.00000
     26       6.7153      0.00000
     27       6.8348      0.00000
     28       7.4850      0.00000
     29       7.6645      0.00000
     30       7.9464      0.00000
     31       7.9931      0.00000
     32       8.9746      0.00000

 k-point    16 :       0.5000    0.3333    0.0000
  band No.  band energies     occupation 
      1      -9.7909      2.00000
      2      -9.7765      2.00000
      3      -9.7238      2.00000
      4      -9.7087      2.00000
      5      -5.1101      2.00000
      6      -5.0806      2.00000
      7      -4.8608      2.00000
      8      -4.8271      2.00000
      9      -1.5261      2.00000
     10      -1.5068      2.00000
     11      -1.2119      2.00000
     12      -1.1687      2.00000
     13      -0.5838      2.00000
     14      -0.5696      2.00000
     15      -0.0408      2.00000
     16      -0.0332      2.00000
     17       0.7507      2.00000
     18       0.9859      2.00000
     19       1.6582      2.00000
     20       1.9220      2.00000
     21       5.0549      0.00000
     22       5.0678      0.00000
     23       6.3416      0.00000
     24       6.4070      0.00000
     25       6.7165      0.00000
     26       6.7184      0.00000
     27       7.0676      0.00000
     28       7.0859      0.00000
     29       7.7091      0.00000
     30       7.7629      0.00000
     31       8.5155      0.00000
     32       8.6277      0.00000

 k-point    17 :       0.0000    0.5000    0.0000
  band No.  band energies     occupation 
      1     -10.4095      2.00000
      2     -10.4095      2.00000
      3     -10.1933      2.00000
      4     -10.1933      2.00000
      5      -5.3438      2.00000
      6      -5.3438      2.00000
      7      -4.6638      2.00000
      8      -4.6638      2.00000
      9      -0.5514      2.00000
     10      -0.5514      2.00000
     11       0.8943      2.00000
     12       0.8943      2.00000
     13       1.0728      2.00000
     14       1.0728      2.00000
     15       1.2736      2.00000
     16       1.2736      2.00000
     17       2.1358      2.00000
     18       2.1358      2.00000
     19       2.5505      2.00000
     20       2.5505      2.00000
     21       4.3201      0.00000
     22       4.3201      0.00000
     23       4.8281      0.00000
     24       4.8281      0.00000
     25       5.2100      0.00000
     26       5.2100      0.00000
     27       5.5911      0.00000
     28       5.5911      0.00000
     29       6.1444      0.00000
     30       6.1444      0.00000
     31       8.1114      0.00000
     32       8.1114      0.00000

 k-point    18 :       0.1667    0.5000    0.0000
  band No.  band energies     occupation 
      1     -10.2730      2.00000
      2     -10.2715      2.00000
      3     -10.0725      2.00000
      4     -10.0708      2.00000
      5      -5.2342      2.00000
      6      -5.2193      2.00000
      7      -4.6114      2.00000
      8      -4.5914      2.00000
      9      -0.6921      2.00000
     10      -0.6729      2.00000
     11      -0.4063      2.00000
     12      -0.4036      2.00000
     13      -0.1089      2.00000
     14      -0.0753      2.00000
     15       1.0942      2.00000
     16       1.1947      2.00000
     17       1.9374      2.00000
     18       2.1767      2.00000
     19       2.3253      2.00000
     20       2.4876      2.00000
     21       4.4981      0.00000
     22       4.5325      0.00000
     23       5.3966      0.00000
     24       5.4115      0.00000
     25       5.9085      0.00000
     26       6.0084      0.00000
     27       6.6821      0.00000
     28       6.7538      0.00000
     29       7.0203      0.00000
     30       7.0947      0.00000
     31       7.8084      0.00000
     32       7.9368      0.00000

 k-point    19 :       0.3333    0.5000    0.0000
  band No.  band energies     occupation 
      1      -9.9521      2.00000
      2      -9.9467      2.00000
      3      -9.8100      2.00000
      4      -9.8041      2.00000
      5      -5.0444      2.00000
      6      -5.0083      2.00000
      7      -4.6444      2.00000
      8      -4.5982      2.00000
      9      -1.7546      2.00000
     10      -1.7218      2.00000
     11      -1.3497      2.00000
     12      -1.3471      2.00000
     13      -0.3724      2.00000
     14      -0.3100      2.00000
     15       0.2585      2.00000
     16       0.4241      2.00000
     17       0.7540      2.00000
     18       1.0784      2.00000
     19       1.7362      2.00000
     20       1.9841      2.00000
     21       5.0384      0.00000
     22       5.0676      0.00000
     23       6.6675      0.00000
     24       6.7415      0.00000
     25       7.1582      0.00000
     26       7.2045      0.00000
     27       7.3017      0.00000
     28       7.4037      0.00000
     29       8.0244      0.00000
     30       8.1133      0.00000
     31       8.6894      0.00000
     32       8.7872      0.00000

 k-point    20 :       0.5000    0.5000    0.0000
  band No.  band energies     occupation 
      1      -9.7479      2.00000
      2      -9.7291      2.00000
      3      -9.6873      2.00000
      4      -9.6677      2.00000
      5      -4.9842      2.00000
      6      -4.9136      2.00000
      7      -4.8435      2.00000
      8      -4.7666      2.00000
      9      -1.7900      2.00000
     10      -1.7700      2.00000
     11      -1.5216      2.00000
     12      -1.4845      2.00000
     13      -0.8925      2.00000
     14      -0.7657      2.00000
     15      -0.4852      2.00000
     16      -0.4151      2.00000
     17       0.7272      2.00000
     18       1.2050      2.00000
[...]
     32       7.4541      0.00000

 k-point    32 :       0.1667    0.3333    0.5000
  band No.  band energies     occupation 
      1     -10.5561      2.00000
      2     -10.5561      2.00000
      3      -9.8579      2.00000
      4      -9.8579      2.00000
      5      -5.2001      2.00000
      6      -5.2001      2.00000
      7      -4.2771      2.00000
      8      -4.2771      2.00000
      9      -0.9677      2.00000
     10      -0.9677      2.00000
     11      -0.3873      2.00000
     12      -0.3873      2.00000
     13       0.1471      2.00000
     14       0.1471      2.00000
     15       1.1476      2.00000
     16       1.1476      2.00000
     17       1.9038      2.00000
     18       1.9038      2.00000
     19       2.3165      2.00000
     20       2.3165      2.00000
     21       4.9330      0.00000
     22       4.9330      0.00000
     23       5.3694      0.00000
     24       5.3694      0.00000
     25       5.8624      0.00000
     26       5.8624      0.00000
     27       6.4853      0.00000
     28       6.4853      0.00000
     29       7.0481      0.00000
     30       7.0482      0.00000
     31       7.6651      0.00000
     32       7.6651      0.00000

 k-point    33 :       0.1667   -0.3333    0.5000
  band No.  band energies     occupation 
      1     -10.5560      2.00000
      2     -10.5560      2.00000
      3      -9.8576      2.00000
      4      -9.8576      2.00000
      5      -5.2100      2.00000
      6      -5.2100      2.00000
      7      -4.2676      2.00000
      8      -4.2676      2.00000
      9      -0.9885      2.00000
     10      -0.9885      2.00000
     11      -0.3399      2.00000
     12      -0.3399      2.00000
     13       0.1617      2.00000
     14       0.1617      2.00000
     15       1.1067      2.00000
     16       1.1067      2.00000
     17       1.9956      2.00000
     18       1.9956      2.00000
     19       2.1897      2.00000
     20       2.1897      2.00000
     21       4.9705      0.00000
     22       4.9705      0.00000
     23       5.3268      0.00000
     24       5.3268      0.00000
     25       5.8699      0.00000
     26       5.8699      0.00000
     27       6.4419      0.00000
     28       6.4419      0.00000
     29       7.2526      0.00000
     30       7.2526      0.00000
     31       7.6780      0.00000
     32       7.6780      0.00000

 k-point    34 :       0.3333    0.3333    0.5000
  band No.  band energies     occupation 
      1     -10.1508      2.00000
      2     -10.1508      2.00000
      3      -9.6807      2.00000
      4      -9.6807      2.00000
      5      -5.1158      2.00000
      6      -5.1157      2.00000
      7      -4.5278      2.00000
      8      -4.5278      2.00000
      9      -1.7301      2.00000
     10      -1.7301      2.00000
     11      -0.9267      2.00000
     12      -0.9267      2.00000
     13      -0.2563      2.00000
     14      -0.2563      2.00000
     15       0.5624      2.00000
     16       0.5624      2.00000
     17       1.0384      2.00000
     18       1.0384      2.00000
     19       1.9555      2.00000
     20       1.9555      2.00000
     21       5.1987      0.00000
     22       5.1987      0.00000
     23       5.8636      0.00000
     24       5.8636      0.00000
     25       6.2124      0.00000
     26       6.2124      0.00000
     27       7.0162      0.00000
     28       7.0162      0.00000
     29       7.5680      0.00000
     30       7.5680      0.00000
     31       8.9388      0.00000
     32       8.9388      0.00000

 k-point    35 :       0.3333   -0.3333    0.5000
  band No.  band energies     occupation 
      1     -10.1506      2.00000
      2     -10.1506      2.00000
      3      -9.6803      2.00000
      4      -9.6803      2.00000
      5      -5.1391      2.00000
      6      -5.1391      2.00000
      7      -4.5015      2.00000
      8      -4.5015      2.00000
      9      -1.7456      2.00000
     10      -1.7456      2.00000
     11      -0.9067      2.00000
     12      -0.9067      2.00000
     13      -0.2395      2.00000
     14      -0.2395      2.00000
     15       0.5320      2.00000
     16       0.5320      2.00000
     17       1.0945      2.00000
     18       1.0945      2.00000
     19       1.8786      2.00000
     20       1.8786      2.00000
     21       5.1595      0.00000
     22       5.1595      0.00000
     23       5.8693      0.00000
     24       5.8693      0.00000
     25       6.3086      0.00000
     26       6.3086      0.00000
     27       7.1281      0.00000
     28       7.1281      0.00000
     29       7.5630      0.00000
     30       7.5630      0.00000
     31       8.8415      0.00000
     32       8.8415      0.00000

 k-point    36 :       0.5000    0.3333    0.5000
  band No.  band energies     occupation 
      1      -9.7801      2.00000
      2      -9.7801      2.00000
      3      -9.7202      2.00000
      4      -9.7202      2.00000
      5      -5.0145      2.00000
      6      -5.0145      2.00000
      7      -4.9338      2.00000
      8      -4.9338      2.00000
      9      -1.3842      2.00000
     10      -1.3842      2.00000
     11      -1.2913      2.00000
     12      -1.2913      2.00000
     13      -0.4542      2.00000
     14      -0.4542      2.00000
     15      -0.3353      2.00000
     16      -0.3353      2.00000
     17       1.3283      2.00000
     18       1.3283      2.00000
     19       1.4602      2.00000
     20       1.4602      2.00000
     21       5.5630      0.00000
     22       5.5630      0.00000
     23       5.7818      0.00000
     24       5.7818      0.00000
     25       6.6121      0.00000
     26       6.6121      0.00000
     27       6.7494      0.00000
     28       6.7494      0.00000
     29       8.2417      0.00000
     30       8.2417      0.00000
     31       8.3657      0.00000
     32       8.3657      0.00000

 k-point    37 :       0.0000    0.5000    0.5000
  band No.  band energies     occupation 
      1     -10.4066      2.00000
      2     -10.4066      2.00000
      3     -10.1969      2.00000
      4     -10.1969      2.00000
      5      -5.2547      2.00000
      6      -5.2547      2.00000
      7      -4.7919      2.00000
      8      -4.7919      2.00000
      9       0.0229      2.00000
     10       0.0229      2.00000
     11       0.4060      2.00000
     12       0.4060      2.00000
     13       0.9001      2.00000
     14       0.9001      2.00000
     15       1.0826      2.00000
     16       1.0826      2.00000
     17       2.3621      2.00000
     18       2.3621      2.00000
     19       2.4824      2.00000
     20       2.4824      2.00000
     21       4.3419      0.00000
     22       4.3419      0.00000
     23       4.7627      0.00000
     24       4.7627      0.00000
     25       5.6033      0.00000
     26       5.6033      0.00000
     27       6.0801      0.00000
     28       6.0801      0.00000
     29       6.1213      0.00000
     30       6.1213      0.00000
     31       7.1537      0.00000
     32       7.1537      0.00000

 k-point    38 :       0.1667    0.5000    0.5000
  band No.  band energies     occupation 
      1     -10.2695      2.00000
      2     -10.2695      2.00000
      3     -10.0751      2.00000
      4     -10.0751      2.00000
      5      -5.1484      2.00000
      6      -5.1484      2.00000
      7      -4.7105      2.00000
      8      -4.7105      2.00000
      9      -0.5669      2.00000
     10      -0.5669      2.00000
     11      -0.4552      2.00000
     12      -0.4552      2.00000
     13       0.4186      2.00000
     14       0.4186      2.00000
     15       0.4914      2.00000
     16       0.4914      2.00000
     17       2.0340      2.00000
     18       2.0340      2.00000
     19       2.2725      2.00000
     20       2.2725      2.00000
     21       5.2016      0.00000
     22       5.2016      0.00000
     23       5.3985      0.00000
     24       5.3985      0.00000
     25       5.9603      0.00000
     26       5.9603      0.00000
     27       6.6150      0.00000
     28       6.6150      0.00000
     29       7.0468      0.00000
     30       7.0468      0.00000
     31       7.2746      0.00000
     32       7.2746      0.00000

 k-point    39 :       0.3333    0.5000    0.5000
  band No.  band energies     occupation 
      1      -9.9472      2.00000
      2      -9.9472      2.00000
      3      -9.8096      2.00000
      4      -9.8096      2.00000
      5      -4.9794      2.00000
      6      -4.9794      2.00000
      7      -4.6791      2.00000
      8      -4.6791      2.00000
      9      -1.5865      2.00000
     10      -1.5865      2.00000
     11      -1.5491      2.00000
     12      -1.5491      2.00000
     13      -0.0439      2.00000
     14      -0.0439      2.00000
     15       0.0328      2.00000
     16       0.0328      2.00000
     17       1.1999      2.00000
     18       1.1999      2.00000
     19       1.5648      2.00000
     20       1.5648      2.00000
     21       5.5434      0.00000
     22       5.5434      0.00000
     23       6.1711      0.00000
     24       6.1711      0.00000
     25       7.0300      0.00000
     26       7.0300      0.00000
     27       7.1257      0.00000
     28       7.1257      0.00000
     29       8.4751      0.00000
     30       8.4751      0.00000
     31       8.6797      0.00000
     32       8.6797      0.00000

 k-point    40 :       0.5000    0.5000    0.5000
  band No.  band energies     occupation 
      1      -9.7379      2.00000
      2      -9.7379      2.00000
      3      -9.6783      2.00000
      4      -9.6783      2.00000
      5      -4.8986      2.00000
      6      -4.8986      2.00000
      7      -4.8612      2.00000
      8      -4.8612      2.00000
      9      -1.6389      2.00000
     10      -1.6389      2.00000
     11      -1.5321      2.00000
     12      -1.5321      2.00000
     13      -0.8401      2.00000
     14      -0.8401      2.00000
     15      -0.7327      2.00000
     16      -0.7327      2.00000
     17       1.3494      2.00000
     18       1.3494      2.00000
     19       1.4755      2.00000
     20       1.4755      2.00000
     21       5.5132      0.00000
     22       5.5132      0.00000
     23       5.7514      0.00000
     24       5.7514      0.00000
     25       7.5747      0.00000
     26       7.5747      0.00000
     27       7.6602      0.00000
     28       7.6602      0.00000
     29       8.9886      0.00000
     30       8.9886      0.00000
     31       9.3945      0.00000
     32       9.3945      0.00000


--------------------------------------------------------------------------------------------------------


 soft charge-density along one line, spin component            1
         0         1         2         3         4         5         6         7         8         9
 total charge-density along one line
 
 pseudopotential strength for first ion, spin component:            1
 14.616  18.239   0.042   0.047   0.000   0.076   0.085   0.001
 18.239  22.773   0.053   0.060   0.001   0.096   0.108   0.001
  0.042   0.053   3.240  -0.003  -0.000   5.517  -0.005  -0.000
  0.047   0.060  -0.003   3.239   0.000  -0.005   5.514   0.000
  0.000   0.001  -0.000   0.000   3.242  -0.000   0.000   5.520
  0.076   0.096   5.517  -0.005  -0.000   9.452  -0.008  -0.000
  0.085   0.108  -0.005   5.514   0.000  -0.008   9.447   0.000
  0.001   0.001  -0.000   0.000   5.520  -0.000   0.000   9.457
 -0.000  -0.000   0.000  -0.000   0.007   0.000  -0.000   0.013
 -0.006  -0.007   0.012   0.013  -0.000   0.022   0.023  -0.000
 -0.003  -0.004  -0.004   0.012  -0.000  -0.007   0.022  -0.000
  0.000   0.000  -0.000   0.000   0.012  -0.000   0.000   0.022
  0.002   0.002  -0.012  -0.000   0.000  -0.022  -0.000   0.000
 total augmentation occupancy for first ion, spin component:            1
  2.696  -0.675   0.341   0.380   0.004  -0.063  -0.069  -0.001  -0.001  -0.012  -0.008  -0.001   0.009
 -0.675   0.647  -0.440  -0.497  -0.005   0.069   0.078   0.001   0.001   0.007   0.008   0.001  -0.005
  0.341  -0.440   1.234   0.060   0.000  -0.201   0.003   0.000   0.001   0.042  -0.097   0.001   0.000
  0.380  -0.497   0.060   1.279  -0.003   0.003  -0.205   0.001   0.001  -0.019   0.109   0.001  -0.004
  0.004  -0.005   0.000  -0.003   1.234   0.000   0.001  -0.211   0.145   0.001   0.000   0.037   0.000
 -0.063   0.069  -0.201   0.003   0.000   0.037  -0.002  -0.000  -0.000  -0.007   0.016  -0.000   0.000
 -0.069   0.078   0.003  -0.205   0.001  -0.002   0.037  -0.000  -0.000   0.003  -0.019  -0.000   0.001
 -0.001   0.001   0.000   0.001  -0.211  -0.000  -0.000   0.040  -0.025  -0.000  -0.000  -0.006  -0.000
 -0.001   0.001   0.001   0.001   0.145  -0.000  -0.000  -0.025   0.031  -0.000  -0.000   0.002   0.000
 -0.012   0.007   0.042  -0.019   0.001  -0.007   0.003  -0.000  -0.000   0.011  -0.007  -0.000   0.001
 -0.008   0.008  -0.097   0.109   0.000   0.016  -0.019  -0.000  -0.000  -0.007   0.030  -0.000  -0.002
 -0.001   0.001   0.001   0.001   0.037  -0.000  -0.000  -0.006   0.002  -0.000  -0.000   0.009  -0.000
  0.009  -0.005   0.000  -0.004   0.000   0.000   0.001  -0.000   0.000   0.001  -0.002  -0.000   0.008


------------------------ aborting loop because EDIFF is reached ----------------------------------------


    CHARGE:  cpu time      0.0056: real time      0.0056
    FORLOC:  cpu time      0.0002: real time      0.0002
    FORNL :  cpu time      0.0263: real time      0.0265
    STRESS:  cpu time      0.2822: real time      0.2859
    FORCOR:  cpu time      0.0068: real time      0.0068
    FORHAR:  cpu time      0.0017: real time      0.0017
    MIXING:  cpu time      0.0006: real time      0.0006
    OFIELD:  cpu time      0.0000: real time      0.0000

  FORCE on cell =-STRESS in cart. coord.  units (eV):
  Direction    XX          YY          ZZ          XY          YZ          ZX
  --------------------------------------------------------------------------------------
  Alpha Z    83.74936    83.74936    83.74936
  Ewald    -404.64740  -454.85153  -523.97510    -2.47828    -0.00001     0.00000
  Hartree    81.58352    57.53543    16.87741    -0.96040    -0.00000    -0.00000
  E(xc)    -140.86775  -140.87522  -141.33501    -0.02324     0.00000     0.00000
  Local    -237.65755  -169.17011   -63.90963     3.41765     0.00001    -0.00000
  n-local   240.29301   239.89746   241.58649     0.00410    -0.00000    -0.00000
  augment   -11.35683   -11.74315   -12.14704     0.00216     0.00000     0.00000
  Kinetic   389.74621   395.70774   398.69372    -0.08872     0.00000    -0.00000
  Fock        0.00000     0.00000     0.00000     0.00000     0.00000     0.00000
  -------------------------------------------------------------------------------------
  Total       0.84256     0.24998    -0.45981    -0.12674    -0.00000    -0.00000
  in kB       6.67213     1.97957    -3.64116    -1.00364    -0.00000    -0.00001
  external pressure =        1.67 kB  Pullay stress =        0.00 kB


 VOLUME and BASIS-vectors are now :
 -----------------------------------------------------------------------------
  energy-cutoff  :      360.00
  volume of cell :      202.32
      direct lattice vectors                 reciprocal lattice vectors
     3.858100176  0.000000000  0.000000000     0.259194929  0.000000000  0.000000000
     0.000000000  4.526575088  0.000000000     0.000000000  0.220917577  0.000000000
     0.000000000  0.000000000 11.585176468     0.000000000  0.000000000  0.086317200

  length of vectors
     3.858100176  4.526575088 11.585176468     0.259194929  0.220917577  0.086317200


 FORCES acting on ions
    electron-ion (+dipol)            ewald-force                    non-local-force                 convergence-correction
 -----------------------------------------------------------------------------------------------
   0.215E-03 0.158E+02 0.331E+02   -.364E-01 -.185E+02 -.361E+02   0.328E-01 0.262E+01 0.301E+01   0.521E-05 -.397E-05 -.140E-02
   0.213E-03 0.158E+02 -.331E+02   -.364E-01 -.185E+02 0.361E+02   0.328E-01 0.262E+01 -.301E+01   0.567E-05 -.364E-05 0.140E-02
   -.207E-03 -.158E+02 -.331E+02   0.364E-01 0.185E+02 0.361E+02   -.329E-01 -.262E+01 -.301E+01   -.540E-05 0.510E-05 0.140E-02
   -.203E-03 -.158E+02 0.331E+02   0.364E-01 0.185E+02 -.361E+02   -.329E-01 -.262E+01 0.301E+01   -.527E-05 0.313E-05 -.140E-02
   0.385E+00 -.151E+02 -.346E+02   -.337E+00 0.166E+02 0.364E+02   -.794E-01 -.144E+01 -.178E+01   -.436E-04 0.352E-03 0.273E-02
   0.385E+00 -.151E+02 0.346E+02   -.337E+00 0.166E+02 -.364E+02   -.794E-01 -.144E+01 0.178E+01   -.428E-04 0.346E-03 -.273E-02
   -.385E+00 0.151E+02 0.346E+02   0.337E+00 -.166E+02 -.364E+02   0.795E-01 0.144E+01 0.178E+01   0.423E-04 -.350E-03 -.273E-02
   -.385E+00 0.151E+02 -.346E+02   0.337E+00 -.166E+02 0.364E+02   0.795E-01 0.144E+01 -.178E+01   0.426E-04 -.346E-03 0.273E-02
 -----------------------------------------------------------------------------------------------
   0.164E-04 0.819E-05 -.472E-05   0.494E-14 -.711E-14 0.000E+00   -.786E-04 0.228E-03 -.935E-07   -.122E-05 0.135E-05 0.435E-05
 
 
 POSITION                                       TOTAL-FORCE (eV/Angst)
 -----------------------------------------------------------------------------------
      1.30001      0.76367      1.52892        -0.003404     -0.042383      0.012060
      3.22906      3.02695      4.26367        -0.003404     -0.042383     -0.012063
      2.89357      4.09092     10.05626         0.003301      0.042487     -0.012071
      0.96452      1.82763      7.32150         0.003301      0.042487      0.012072
      1.30001      0.23506      4.06767        -0.031063      0.032716      0.012004
      3.22906      2.49835      1.72492        -0.031063      0.032716     -0.012002
      2.89357      0.09295      7.51751         0.031167     -0.032820     -0.011597
      0.96452      2.35624      9.86026         0.031166     -0.032820      0.011596
 -----------------------------------------------------------------------------------
    total drift:                               -0.000063      0.000238     -0.000000


--------------------------------------------------------------------------------------------------------



  FREE ENERGIE OF THE ION-ELECTRON SYSTEM (eV)
  ---------------------------------------------------
  free  energy   TOTEN  =       -33.80530294 eV

  energy  without entropy=      -33.80530294  energy(sigma->0) =      -33.80530294
 


--------------------------------------------------------------------------------------------------------


    POTLOK:  cpu time      0.2234: real time      0.2239


--------------------------------------------------------------------------------------------------------


     LOOP+:  cpu time      7.1579: real time      7.2006
    4ORBIT:  cpu time      0.0000: real time      0.0000

 total amount of memory used by VASP MPI-rank0    37119. kBytes
=======================================================================

   base      :      30000. kBytes
   nonl-proj :       5406. kBytes
   fftplans  :        334. kBytes
   grid      :        503. kBytes
   one-center:         16. kBytes
   wavefun   :        860. kBytes
 
  
  
 General timing and accounting informations for this job:
 ========================================================
  
                  Total CPU time used (sec):        8.813
                            User time (sec):        8.524
                          System time (sec):        0.289
                         Elapsed time (sec):        9.111
  
                   Maximum memory used (kb):      175228.
                   Average memory used (kb):          N/A
  
                          Minor page faults:        18813
                          Major page faults:           47
                 Voluntary context switches:         1915
