 running  160 mpi-ranks, with    1 threads/rank, on   10 nodes
 distrk:  each k-point on   80 cores,    2 groups
 distr:  one band on    5 cores,   16 groups
 vasp.6.4.2 20Jul23 (build Oct 12 2023 10:31:02) complex                         
 POSCAR found type information on POSCAR GeSe
 POSCAR found :  2 types and       8 ions
 Reading from existing POTCAR
 scaLAPACK will be used
 Reading from existing POTCAR
 LDA part: xc-table for Pade appr. of Perdew
 POSCAR, INCAR and KPOINTS ok, starting setup
 FFT: planning ... GRIDC
 FFT: planning ... GRID_SOFT
 FFT: planning ... GRID
 WAVECAR not read
 entering main loop
       N       E                     dE             d eps       ncg     rms          rms(c)
DAV:   1     0.132820351805E+03    0.13282E+03   -0.12884E+04  2560   0.773E+02
DAV:   2    -0.250847042861E+02   -0.15791E+03   -0.15322E+03  3776   0.139E+02
DAV:   3    -0.340039792671E+02   -0.89193E+01   -0.89019E+01  3040   0.385E+01
DAV:   4    -0.340701906249E+02   -0.66211E-01   -0.66190E-01  3456   0.379E+00
DAV:   5    -0.340706646938E+02   -0.47407E-03   -0.47406E-03  2992   0.312E-01    0.649E+00
DAV:   6    -0.336596342896E+02    0.41103E+00   -0.81649E-01  3232   0.305E+00    0.406E+00
DAV:   7    -0.336515311570E+02    0.81031E-02   -0.25266E-01  3328   0.176E+00    0.131E+00
DAV:   8    -0.336502954548E+02    0.12357E-02   -0.28839E-02  3040   0.631E-01    0.173E-01
DAV:   9    -0.336506629130E+02   -0.36746E-03   -0.39225E-03  3168   0.273E-01    0.653E-02
DAV:  10    -0.336508458039E+02   -0.18289E-03   -0.38722E-04  3120   0.857E-02    0.228E-02
DAV:  11    -0.336508858418E+02   -0.40038E-04   -0.49582E-05  3216   0.314E-02    0.124E-02
DAV:  12    -0.336508882124E+02   -0.23707E-05   -0.92722E-06  3344   0.120E-02    0.242E-03
DAV:  13    -0.336508890263E+02   -0.81390E-06   -0.13524E-06  2144   0.494E-03
   1 F= -.33650889E+02 E0= -.33650889E+02  d E =-.109001E-10
