 vasp.6.4.2 20Jul23 (build Oct 12 2023 10:31:02) complex                         
 executed on              LinuxNV date 2025.05.19  03:46:42
 running  160 mpi-ranks, with    1 threads/rank, on   10 nodes
 distrk:  each k-point on   80 cores,    2 groups
 distr:  one band on NCORE=   5 cores,   16 groups


--------------------------------------------------------------------------------------------------------


 INCAR:
   ENCUT = 360.000000
   SIGMA = 0.050000
   EDIFF = 1.00e-06
   ALGO = Normal
   GGA = PE
   PREC = Normal
   SYSTEM = ./
   ICHARG = 2
   ISMEAR = 0
   ISPIN = 1
   ISTART = 0
   ISYM = 0
   KPAR = 2
   LMAXMIX = 4
   NELM = 100
   NPAR = 16
   LASPH = .TRUE.
   LCHARG = .FALSE.
   LWAVE = .FALSE.

 POTCAR:    PAW_PBE Ge 05Jan2001                  
 POTCAR:    PAW_PBE Se 06Sep2000                  
 POTCAR:    PAW_PBE Ge 05Jan2001                  
   VRHFIN =Ge: s2p2                                                                                 
   LEXCH  = PE                                                                                      
   EATOM  =   104.9960 eV,    7.7170 Ry                                                             
                                                                                                    
   TITEL  = PAW_PBE Ge 05Jan2001                                                                    
   LULTRA =        F    use ultrasoft PP ?                                                          
   IUNSCR =        1    unscreen: 0-lin 1-nonlin 2-no                                               
   RPACOR =    2.170    partial core radius                                                         
   POMASS =   72.610; ZVAL   =    4.000    mass and valenz                                          
   RCORE  =    2.300    outmost cutoff radius                                                       
   RWIGS  =    2.300; RWIGS  =    1.217    wigner-seitz radius (au A)                               
   ENMAX  =  173.807; ENMIN  =  130.355 eV                                                          
   ICORE  =        3    local potential                                                             
   LCOR   =        T    correct aug charges                                                         
   LPAW   =        T    paw PP                                                                      
   EAUG   =  385.843                                                                                
   DEXC   =    0.000                                                                                
   RMAX   =    2.342    core radius for proj-oper                                                   
   RAUG   =    1.300    factor for augmentation sphere                                              
   RDEP   =    2.318    radius for radial grids                                                     
   RDEPT  =    2.103    core radius for aug-charge                                                  
                                                                                                    
   Atomic configuration                                                                             
   10 entries                                                                                       
     n  l   j            E        occ.                                                              
     1  0  0.50    -10959.8463   2.0000                                                             
     2  0  0.50     -1371.6056   2.0000                                                             
     2  1  1.50     -1198.4791   6.0000                                                             
     3  0  0.50      -168.4733   2.0000                                                             
     3  1  1.50      -115.6019   6.0000                                                             
     3  2  2.50       -29.3106  10.0000                                                             
     4  0  0.50       -11.7309   2.0000                                                             
     4  1  0.50        -3.8952   2.0000                                                             
     4  2  1.50        -4.0817   0.0000                                                             
     4  3  2.50        -4.0817   0.0000                                                             
   Description                                                                                      
     l       E           TYP  RCUT    TYP  RCUT                                                     
     0    -11.7309493     23  2.300                                                                 
     0     -7.4578696     23  2.300                                                                 
     1     -3.8952261     23  2.300                                                                 
     1      6.1178114     23  2.300                                                                 
     2     -4.0817478     23  2.300                                                                 
     3     -1.3605826      7  2.300                                                                 
  local pseudopotential read in
  partial core-charges read in
  partial kinetic energy density read in
  atomic valenz-charges read in
  non local Contribution for L=            0  read in
    real space projection operators read in
  non local Contribution for L=            0  read in
    real space projection operators read in
  non local Contribution for L=            1  read in
    real space projection operators read in
  non local Contribution for L=            1  read in
    real space projection operators read in
  non local Contribution for L=            2  read in
    real space projection operators read in
    PAW grid and wavefunctions read in
 
   number of l-projection  operators is LMAX  =            5
   number of lm-projection operators is LMMAX =           13
 
 POTCAR:    PAW_PBE Se 06Sep2000                  
   VRHFIN =Se: s2p4                                                                                 
   LEXCH  = PE                                                                                      
   EATOM  =   257.1286 eV,   18.8984 Ry                                                             
                                                                                                    
   TITEL  = PAW_PBE Se 06Sep2000                                                                    
   LULTRA =        F    use ultrasoft PP ?                                                          
   IUNSCR =        1    unscreen: 0-lin 1-nonlin 2-no                                               
   RPACOR =    1.900    partial core radius                                                         
   POMASS =   78.960; ZVAL   =    6.000    mass and valenz                                          
   RCORE  =    2.100    outmost cutoff radius                                                       
   RWIGS  =    2.200; RWIGS  =    1.164    wigner-seitz radius (au A)                               
   ENMAX  =  211.555; ENMIN  =  158.666 eV                                                          
   ICORE  =        3    local potential                                                             
   LCOR   =        T    correct aug charges                                                         
   LPAW   =        T    paw PP                                                                      
   EAUG   =  446.842                                                                                
   DEXC   =    0.000                                                                                
   RMAX   =    2.147    core radius for proj-oper                                                   
   RAUG   =    1.300    factor for augmentation sphere                                              
   RDEP   =    2.177    radius for radial grids                                                     
   RDEPT  =    1.928    core radius for aug-charge                                                  
                                                                                                    
   Atomic configuration                                                                             
   10 entries                                                                                       
     n  l   j            E        occ.                                                              
     1  0  0.50    -12503.4787   2.0000                                                             
     2  0  0.50     -1606.9547   2.0000                                                             
     2  1  1.50     -1413.3140   6.0000                                                             
     3  0  0.50      -213.4885   2.0000                                                             
     3  1  1.50      -152.9538   6.0000                                                             
     3  2  2.50       -53.1221  10.0000                                                             
     4  0  0.50       -17.2865   2.0000                                                             
     4  1  0.50        -6.5110   4.0000                                                             
     4  2  2.50        -6.8029   0.0000                                                             
     4  3  2.50        -6.8029   0.0000                                                             
   Description                                                                                      
     l       E           TYP  RCUT    TYP  RCUT                                                     
     0    -17.2865377     23  2.100                                                                 
     0    -15.3094411     23  2.100                                                                 
     1     -6.5110275     23  2.100                                                                 
     1     -0.0695192     23  2.100                                                                 
     2     -6.8029130     23  2.100                                                                 
     3     -1.3605826      7  2.100                                                                 
  local pseudopotential read in
  partial core-charges read in
  partial kinetic energy density read in
  atomic valenz-charges read in
  non local Contribution for L=            0  read in
    real space projection operators read in
  non local Contribution for L=            0  read in
    real space projection operators read in
  non local Contribution for L=            1  read in
    real space projection operators read in
  non local Contribution for L=            1  read in
    real space projection operators read in
  non local Contribution for L=            2  read in
    real space projection operators read in
    PAW grid and wavefunctions read in
 
   number of l-projection  operators is LMAX  =            5
   number of lm-projection operators is LMMAX =           13
 
  PAW_PBE Ge 05Jan2001                  :
 energy of atom  1       EATOM= -104.9960
 kinetic energy error for atom=    0.0005 (will be added to EATOM!!)
  PAW_PBE Se 06Sep2000                  :
 energy of atom  2       EATOM= -257.1286
 kinetic energy error for atom=    0.0030 (will be added to EATOM!!)
 
 
 POSCAR: Ge Se
  positions in cartesian coordinates
  No initial velocities read in
 exchange correlation table for  LEXCH =        8
   RHO(1)=    0.500       N(1)  =     2000
   RHO(2)=  100.500       N(2)  =     4000
 


--------------------------------------------------------------------------------------------------------


 ion  position               nearest neighbor table
   1  0.453  0.937  0.132-   5 2.59   6 2.60   6 2.60
   2  0.953  0.437  0.368-   6 2.59   5 2.60   5 2.60
   3  0.750  0.904  0.868-   7 2.59   8 2.60   8 2.60
   4  0.250  0.404  0.632-   8 2.59   7 2.60   7 2.60
   5  0.453  0.820  0.351-   1 2.59   2 2.60   2 2.60
   6  0.953  0.320  0.149-   2 2.59   1 2.60   1 2.60
   7  0.750  0.021  0.649-   3 2.59   4 2.60   4 2.60
   8  0.250  0.521  0.851-   4 2.59   3 2.60   3 2.60
 

IMPORTANT INFORMATION: All symmetrisations will be switched off!
NOSYMM: (Re-)initialisation of all symmetry stuff for point group C_1.


----------------------------------------------------------------------------------------

                                     Primitive cell                                     

  volume of cell :     202.3233

  direct lattice vectors                    reciprocal lattice vectors
     3.858100176  0.000000000  0.000000000     0.259194929  0.000000000  0.000000000
     0.000000000  4.526575088  0.000000000     0.000000000  0.220917577  0.000000000
     0.000000000  0.000000000 11.585176468     0.000000000  0.000000000  0.086317200

  length of vectors
     3.858100176  4.526575088 11.585176468     0.259194929  0.220917577  0.086317200

  position of ions in fractional coordinates (direct lattice)
     0.452898554  0.936823067  0.131971745
     0.952898518  0.436823055  0.368028228
     0.749999855  0.903756548  0.868028249
     0.249999781  0.403756501  0.631971759
     0.452898538  0.820045415  0.351109927
     0.952898554  0.320045436  0.148890049
     0.749999761  0.020534152  0.648890076
     0.249999838  0.520534176  0.851109946

  ion indices of the primitive-cell ions
   primitive index   ion index
                 1           1
                 2           2
                 3           3
                 4           4
                 5           5
                 6           6
                 7           7
                 8           8

----------------------------------------------------------------------------------------

 
 
 KPOINTS: KPOINTS created by Atomic Simulation Env

Automatic generation of k-mesh.
 Grid dimensions read from file:
 generate k-points for:    6    6    2

 Generating k-lattice:

  Cartesian coordinates                     Fractional coordinates (reciprocal lattice)
     0.043199155  0.000000000  0.000000000     0.166666667  0.000000000  0.000000000
     0.000000000  0.036819596  0.000000000     0.000000000  0.166666667  0.000000000
     0.000000000  0.000000000  0.043158600     0.000000000  0.000000000  0.500000000

  Length of vectors
     0.043199155  0.036819596  0.043158600

  Shift w.r.t. Gamma in fractional coordinates (k-lattice)
     0.000000000  0.000000000  0.000000000

 
 Subroutine IBZKPT returns following result:
 ===========================================
 
 Found     40 irreducible k-points:
 
 Following reciprocal coordinates:
            Coordinates               Weight
  0.000000  0.000000  0.000000      1.000000
  0.166667  0.000000  0.000000      2.000000
  0.333333  0.000000  0.000000      2.000000
  0.500000  0.000000  0.000000      1.000000
  0.000000  0.166667  0.000000      2.000000
  0.166667  0.166667  0.000000      2.000000
  0.166667 -0.166667  0.000000      2.000000
  0.333333  0.166667  0.000000      2.000000
  0.333333 -0.166667  0.000000      2.000000
  0.500000  0.166667  0.000000      2.000000
  0.000000  0.333333  0.000000      2.000000
  0.166667  0.333333  0.000000      2.000000
  0.166667 -0.333333  0.000000      2.000000
  0.333333  0.333333  0.000000      2.000000
  0.333333 -0.333333  0.000000      2.000000
  0.500000  0.333333  0.000000      2.000000
  0.000000  0.500000  0.000000      1.000000
  0.166667  0.500000  0.000000      2.000000
  0.333333  0.500000  0.000000      2.000000
  0.500000  0.500000  0.000000      1.000000
  0.000000  0.000000  0.500000      1.000000
  0.166667  0.000000  0.500000      2.000000
  0.333333  0.000000  0.500000      2.000000
  0.500000  0.000000  0.500000      1.000000
  0.000000  0.166667  0.500000      2.000000
  0.166667  0.166667  0.500000      2.000000
  0.166667 -0.166667  0.500000      2.000000
  0.333333  0.166667  0.500000      2.000000
  0.333333 -0.166667  0.500000      2.000000
  0.500000  0.166667  0.500000      2.000000
  0.000000  0.333333  0.500000      2.000000
  0.166667  0.333333  0.500000      2.000000
  0.166667 -0.333333  0.500000      2.000000
  0.333333  0.333333  0.500000      2.000000
  0.333333 -0.333333  0.500000      2.000000
  0.500000  0.333333  0.500000      2.000000
  0.000000  0.500000  0.500000      1.000000
  0.166667  0.500000  0.500000      2.000000
  0.333333  0.500000  0.500000      2.000000
  0.500000  0.500000  0.500000      1.000000
 
 Following cartesian coordinates:
            Coordinates               Weight
  0.000000  0.000000  0.000000      1.000000
  0.043199  0.000000  0.000000      2.000000
  0.086398  0.000000  0.000000      2.000000
  0.129597  0.000000  0.000000      1.000000
  0.000000  0.036820  0.000000      2.000000
  0.043199  0.036820  0.000000      2.000000
  0.043199 -0.036820  0.000000      2.000000
  0.086398  0.036820  0.000000      2.000000
  0.086398 -0.036820  0.000000      2.000000
  0.129597  0.036820  0.000000      2.000000
  0.000000  0.073639  0.000000      2.000000
  0.043199  0.073639  0.000000      2.000000
  0.043199 -0.073639  0.000000      2.000000
  0.086398  0.073639  0.000000      2.000000
  0.086398 -0.073639  0.000000      2.000000
  0.129597  0.073639  0.000000      2.000000
  0.000000  0.110459  0.000000      1.000000
  0.043199  0.110459  0.000000      2.000000
  0.086398  0.110459  0.000000      2.000000
  0.129597  0.110459  0.000000      1.000000
  0.000000  0.000000  0.043159      1.000000
  0.043199  0.000000  0.043159      2.000000
  0.086398  0.000000  0.043159      2.000000
  0.129597  0.000000  0.043159      1.000000
  0.000000  0.036820  0.043159      2.000000
  0.043199  0.036820  0.043159      2.000000
  0.043199 -0.036820  0.043159      2.000000
  0.086398  0.036820  0.043159      2.000000
  0.086398 -0.036820  0.043159      2.000000
  0.129597  0.036820  0.043159      2.000000
  0.000000  0.073639  0.043159      2.000000
  0.043199  0.073639  0.043159      2.000000
  0.043199 -0.073639  0.043159      2.000000
  0.086398  0.073639  0.043159      2.000000
  0.086398 -0.073639  0.043159      2.000000
  0.129597  0.073639  0.043159      2.000000
  0.000000  0.110459  0.043159      1.000000
  0.043199  0.110459  0.043159      2.000000
  0.086398  0.110459  0.043159      2.000000
  0.129597  0.110459  0.043159      1.000000
 


--------------------------------------------------------------------------------------------------------




 Dimension of arrays:
   k-points           NKPTS =     40   k-points in BZ     NKDIM =     40   number of bands    NBANDS=     32
   number of dos      NEDOS =    301   number of ions     NIONS =      8
   non local maximal  LDIM  =      5   non local SUM 2l+1 LMDIM =     13
   total plane-waves  NPLWV =  23328
   max r-space proj   IRMAX =      1   max aug-charges    IRDMAX=   6465
   dimension x,y,z NGX =    18 NGY =   24 NGZ =   54
   dimension x,y,z NGXF=    36 NGYF=   48 NGZF=  108
   support grid    NGXF=    36 NGYF=   48 NGZF=  108
   ions per type =               4   4
   NGX,Y,Z   is equivalent  to a cutoff of   7.76,  8.81,  7.75 a.u.
   NGXF,Y,Z  is equivalent  to a cutoff of  15.51, 17.63, 15.50 a.u.

 SYSTEM =  ./                                      
 POSCAR =  Ge Se                                   

 Startparameter for this run:
   NWRITE =      2    write-flag & timer
   PREC   = normal    normal or accurate (medium, high low for compatibility)
   ISTART =      0    job   : 0-new  1-cont  2-samecut
   ICHARG =      2    charge: 1-file 2-atom 10-const
   ISPIN  =      1    spin polarized calculation?
   LNONCOLLINEAR =      F non collinear calculations
   LSORBIT =      F    spin-orbit coupling
   INIWAV =      1    electr: 0-lowe 1-rand  2-diag
   LASPH  =      T    aspherical Exc in radial PAW
 Electronic Relaxation 1
   ENCUT  =  360.0 eV  26.46 Ry    5.14 a.u.   5.97  7.00 17.92*2*pi/ulx,y,z
   ENINI  =  360.0     initial cutoff
   ENAUG  =  446.8 eV  augmentation charge cutoff
   NELM   =    100;   NELMIN=  2; NELMDL= -5     # of ELM steps 
   EDIFF  = 0.1E-05   stopping-criterion for ELM
   LREAL  =      F    real-space projection
   NLSPLINE    = F    spline interpolate recip. space projectors
   LCOMPAT=      F    compatible to vasp.4.4
   GGA_COMPAT  = T    GGA compatible to vasp.4.4-vasp.4.6
   LMAXPAW     = -100 max onsite density
   LMAXMIX     =    4 max onsite mixed and CHGCAR
   VOSKOWN=      0    Vosko Wilk Nusair interpolation
   ROPT   =    0.00000   0.00000
 Ionic relaxation
   EDIFFG = 0.1E-04   stopping-criterion for IOM
   NSW    =      0    number of steps for IOM
   NBLOCK =      1;   KBLOCK =      1    inner block; outer block 
   IBRION =     -1    ionic relax: 0-MD 1-quasi-New 2-CG
   NFREE  =      0    steps in history (QN), initial steepest desc. (CG)
   ISIF   =      2    stress and relaxation
   IWAVPR =     10    prediction:  0-non 1-charg 2-wave 3-comb
   ISYM   =      0    0-nonsym 1-usesym 2-fastsym
   LCORR  =      T    Harris-Foulkes like correction to forces

   POTIM  = 0.5000    time-step for ionic-motion
   TEIN   =    0.0    initial temperature
   TEBEG  =    0.0;   TEEND  =   0.0 temperature during run
   SMASS  =  -3.00    Nose mass-parameter (am)
   estimated Nose-frequenzy (Omega)   =  0.10E-29 period in steps = 0.13E+47 mass=  -0.340E-27a.u.
   SCALEE = 1.0000    scale energy and forces
   NPACO  =    256;   APACO  = 10.0  distance and # of slots for P.C.
   PSTRESS=    0.0 pullay stress

  Mass of Ions in am
   POMASS =  72.61 78.96
  Ionic Valenz
   ZVAL   =   4.00  6.00
  Atomic Wigner-Seitz radii
   RWIGS  =  -1.00 -1.00
  virtual crystal weights 
   VCA    =   1.00  1.00
   NELECT =      40.0000    total number of electrons
   NUPDOWN=      -1.0000    fix difference up-down

 DOS related values:
   EMIN   =  10.00;   EMAX   =-10.00  energy-range for DOS
   EFERMI =   0.00;   METHOD = LEGACY      
   ISMEAR =     0;   SIGMA  =   0.05  broadening in eV -4-tet -1-fermi 0-gaus

 Electronic relaxation 2 (details)
   IALGO  =     38    algorithm
   LDIAG  =      T    sub-space diagonalisation (order eigenvalues)
   LSUBROT=      F    optimize rotation matrix (better conditioning)
   TURBO    =      0    0=normal 1=particle mesh
   IRESTART =      0    0=no restart 2=restart with 2 vectors
   NREBOOT  =      0    no. of reboots
   NMIN     =      0    reboot dimension
   EREF     =   0.00    reference energy to select bands
   IMIX   =      4    mixing-type and parameters
     AMIX     =   0.40;   BMIX     =  1.00
     AMIX_MAG =   1.60;   BMIX_MAG =  1.00
     AMIN     =   0.10
     WC   =   100.;   INIMIX=   1;  MIXPRE=   1;  MAXMIX= -45

 Intra band minimization:
   WEIMIN = 0.0000     energy-eigenvalue tresh-hold
   EBREAK =  0.78E-08  absolut break condition
   DEPER  =   0.30     relativ break condition  

   TIME   =   0.40     timestep for ELM

  volume/ion in A,a.u.               =      25.29       170.67
  Fermi-wavevector in a.u.,A,eV,Ry     =   0.953702  1.802236 12.375155  0.909548
  Thomas-Fermi vector in A             =   2.082382
 
 Write flags
   LWAVE        =      F    write WAVECAR
   LDOWNSAMPLE  =      F    k-point downsampling of WAVECAR
   LCHARG       =      F    write CHGCAR
   LVTOT        =      F    write LOCPOT, total local potential
   LVHAR        =      F    write LOCPOT, Hartree potential only
   LELF         =      F    write electronic localiz. function (ELF)
   LORBIT       =      0    0 simple, 1 ext, 2 COOP (PROOUT), +10 PAW based schemes


 Dipole corrections
   LMONO  =      F    monopole corrections only (constant potential shift)
   LDIPOL =      F    correct potential (dipole corrections)
   IDIPOL =      0    1-x, 2-y, 3-z, 4-all directions 
   EPSILON=  1.0000000 bulk dielectric constant

 Exchange correlation treatment:
   GGA     =    PE    GGA type
   LEXCH   =     8    internal setting for exchange type
   LIBXC   =     F    Libxc                    
   VOSKOWN =     0    Vosko Wilk Nusair interpolation
   LHFCALC =     F    Hartree Fock is set to
   LHFONE  =     F    Hartree Fock one center treatment
   AEXX    =    0.0000 exact exchange contribution

 Linear response parameters
   LEPSILON=     F    determine dielectric tensor
   LRPA    =     F    only Hartree local field effects (RPA)
   LNABLA  =     F    use nabla operator in PAW spheres
   LVEL    =     F    velocity operator in full k-point grid
   CSHIFT  =0.1000    complex shift for real part using Kramers Kronig
   OMEGAMAX=  -1.0    maximum frequency
   DEG_THRESHOLD= 0.2000000E-02 threshold for treating states as degnerate
   RTIME   =   -0.100 relaxation time in fs
  (WPLASMAI=    0.000 imaginary part of plasma frequency in eV, 0.658/RTIME)
   DFIELD  = 0.0000000 0.0000000 0.0000000 field for delta impulse in time
 
  Optional k-point grid parameters
   LKPOINTS_OPT  =     F    use optional k-point grid
   KPOINTS_OPT_MODE=     1    mode for optional k-point grid
 
 Orbital magnetization related:
   ORBITALMAG=     F  switch on orbital magnetization
   LCHIMAG   =     F  perturbation theory with respect to B field
   DQ        =  0.001000  dq finite difference perturbation B field
   LLRAUG    =     F  two centre corrections for induced B field
   LBONE     =     F  B-component reconstruction in AE one-centre
   LVGVCALC  =     T  calculate vGv susceptibility
   LVGVAPPL  =     F  apply vGv susceptibility instead of pGv for G=0

 Random number generation:
   RANDOM_GENERATOR = DEFAULT
   PCG_SEED         = not used


--------------------------------------------------------------------------------------------------------


 Static calculation
 charge density and potential will be updated during run
 non-spin polarized calculation
 Variant of blocked Davidson
 Davidson routine will perform the subspace rotation
 perform sub-space diagonalisation
    after iterative eigenvector-optimisation
 modified Broyden-mixing scheme, WC =      100.0
 initial mixing is a Kerker type mixing with AMIX =  0.4000 and BMIX =      1.0000
 Hartree-type preconditioning will be used
 using additional bands            12
 reciprocal scheme for non local part
 use partial core corrections
 calculate Harris-corrections to forces 
   (improved forces if not selfconsistent)
 use gradient corrections 
 use of overlap-Matrix (Vanderbilt PP)
 Gauss-broadening in eV      SIGMA  =   0.05


--------------------------------------------------------------------------------------------------------


  energy-cutoff  :      360.00
  volume of cell :      202.32
      direct lattice vectors                 reciprocal lattice vectors
     3.858100176  0.000000000  0.000000000     0.259194929  0.000000000  0.000000000
     0.000000000  4.526575088  0.000000000     0.000000000  0.220917577  0.000000000
     0.000000000  0.000000000 11.585176468     0.000000000  0.000000000  0.086317200

  length of vectors
     3.858100176  4.526575088 11.585176468     0.259194929  0.220917577  0.086317200


 
 k-points in units of 2pi/SCALE and weight: KPOINTS created by Atomic Simulation Env
   0.00000000  0.00000000  0.00000000       0.014
   0.04319915  0.00000000  0.00000000       0.028
   0.08639831  0.00000000  0.00000000       0.028
   0.12959746  0.00000000  0.00000000       0.014
   0.00000000  0.03681960  0.00000000       0.028
   0.04319915  0.03681960  0.00000000       0.028
   0.04319915 -0.03681960  0.00000000       0.028
   0.08639831  0.03681960  0.00000000       0.028
   0.08639831 -0.03681960  0.00000000       0.028
   0.12959746  0.03681960  0.00000000       0.028
   0.00000000  0.07363919  0.00000000       0.028
   0.04319915  0.07363919  0.00000000       0.028
   0.04319915 -0.07363919  0.00000000       0.028
   0.08639831  0.07363919  0.00000000       0.028
   0.08639831 -0.07363919  0.00000000       0.028
   0.12959746  0.07363919  0.00000000       0.028
   0.00000000  0.11045879  0.00000000       0.014
   0.04319915  0.11045879  0.00000000       0.028
   0.08639831  0.11045879  0.00000000       0.028
   0.12959746  0.11045879  0.00000000       0.014
   0.00000000  0.00000000  0.04315860       0.014
   0.04319915  0.00000000  0.04315860       0.028
   0.08639831  0.00000000  0.04315860       0.028
   0.12959746  0.00000000  0.04315860       0.014
   0.00000000  0.03681960  0.04315860       0.028
   0.04319915  0.03681960  0.04315860       0.028
   0.04319915 -0.03681960  0.04315860       0.028
   0.08639831  0.03681960  0.04315860       0.028
   0.08639831 -0.03681960  0.04315860       0.028
   0.12959746  0.03681960  0.04315860       0.028
   0.00000000  0.07363919  0.04315860       0.028
   0.04319915  0.07363919  0.04315860       0.028
   0.04319915 -0.07363919  0.04315860       0.028
   0.08639831  0.07363919  0.04315860       0.028
   0.08639831 -0.07363919  0.04315860       0.028
   0.12959746  0.07363919  0.04315860       0.028
   0.00000000  0.11045879  0.04315860       0.014
   0.04319915  0.11045879  0.04315860       0.028
   0.08639831  0.11045879  0.04315860       0.028
   0.12959746  0.11045879  0.04315860       0.014
 
 k-points in reciprocal lattice and weights: KPOINTS created by Atomic Simulation Env
   0.00000000  0.00000000  0.00000000       0.014
   0.16666667  0.00000000  0.00000000       0.028
   0.33333333  0.00000000  0.00000000       0.028
   0.50000000  0.00000000  0.00000000       0.014
   0.00000000  0.16666667  0.00000000       0.028
   0.16666667  0.16666667  0.00000000       0.028
   0.16666667 -0.16666667  0.00000000       0.028
   0.33333333  0.16666667  0.00000000       0.028
   0.33333333 -0.16666667  0.00000000       0.028
   0.50000000  0.16666667  0.00000000       0.028
   0.00000000  0.33333333  0.00000000       0.028
   0.16666667  0.33333333  0.00000000       0.028
   0.16666667 -0.33333333  0.00000000       0.028
   0.33333333  0.33333333  0.00000000       0.028
   0.33333333 -0.33333333  0.00000000       0.028
   0.50000000  0.33333333  0.00000000       0.028
   0.00000000  0.50000000  0.00000000       0.014
   0.16666667  0.50000000  0.00000000       0.028
   0.33333333  0.50000000  0.00000000       0.028
   0.50000000  0.50000000  0.00000000       0.014
   0.00000000  0.00000000  0.50000000       0.014
   0.16666667  0.00000000  0.50000000       0.028
   0.33333333  0.00000000  0.50000000       0.028
   0.50000000  0.00000000  0.50000000       0.014
   0.00000000  0.16666667  0.50000000       0.028
   0.16666667  0.16666667  0.50000000       0.028
   0.16666667 -0.16666667  0.50000000       0.028
   0.33333333  0.16666667  0.50000000       0.028
   0.33333333 -0.16666667  0.50000000       0.028
   0.50000000  0.16666667  0.50000000       0.028
   0.00000000  0.33333333  0.50000000       0.028
   0.16666667  0.33333333  0.50000000       0.028
   0.16666667 -0.33333333  0.50000000       0.028
   0.33333333  0.33333333  0.50000000       0.028
   0.33333333 -0.33333333  0.50000000       0.028
   0.50000000  0.33333333  0.50000000       0.028
   0.00000000  0.50000000  0.50000000       0.014
   0.16666667  0.50000000  0.50000000       0.028
   0.33333333  0.50000000  0.50000000       0.028
   0.50000000  0.50000000  0.50000000       0.014
 
 position of ions in fractional coordinates (direct lattice) 
   0.45289855  0.93682307  0.13197174
   0.95289852  0.43682305  0.36802823
   0.74999985  0.90375655  0.86802825
   0.24999978  0.40375650  0.63197176
   0.45289854  0.82004541  0.35110993
   0.95289855  0.32004544  0.14889005
   0.74999976  0.02053415  0.64889008
   0.24999984  0.52053418  0.85110995
 
 position of ions in cartesian coordinates  (Angst):
   1.74732799  4.24059996  1.52891595
   3.67637794  1.97731236  4.26367197
   2.89357457  4.09092188 10.05626045
   0.96452420  1.82763412  7.32150435
   1.74732793  3.71199715  4.06767047
   3.67637808  1.44870970  1.72491749
   2.89357421  0.09294938  7.51750603
   0.96452442  2.35623703  9.86025892
 


--------------------------------------------------------------------------------------------------------


 k-point   1 :   0.0000 0.0000 0.0000  plane waves:    3119
 k-point   2 :   0.1667 0.0000 0.0000  plane waves:    3116
 k-point   3 :   0.3333 0.0000 0.0000  plane waves:    3142
 k-point   4 :   0.5000 0.0000 0.0000  plane waves:    3148
 k-point   5 :   0.0000 0.1667 0.0000  plane waves:    3108
 k-point   6 :   0.1667 0.1667 0.0000  plane waves:    3123
 k-point   7 :   0.1667-0.1667 0.0000  plane waves:    3123
 k-point   8 :   0.3333 0.1667 0.0000  plane waves:    3135
 k-point   9 :   0.3333-0.1667 0.0000  plane waves:    3135
 k-point  10 :   0.5000 0.1667 0.0000  plane waves:    3138
 k-point  11 :   0.0000 0.3333 0.0000  plane waves:    3116
 k-point  12 :   0.1667 0.3333 0.0000  plane waves:    3133
 k-point  13 :   0.1667-0.3333 0.0000  plane waves:    3133
 k-point  14 :   0.3333 0.3333 0.0000  plane waves:    3155
 k-point  15 :   0.3333-0.3333 0.0000  plane waves:    3155
 k-point  16 :   0.5000 0.3333 0.0000  plane waves:    3152
 k-point  17 :   0.0000 0.5000 0.0000  plane waves:    3134
 k-point  18 :   0.1667 0.5000 0.0000  plane waves:    3140
 k-point  19 :   0.3333 0.5000 0.0000  plane waves:    3144
 k-point  20 :   0.5000 0.5000 0.0000  plane waves:    3144
 k-point  21 :   0.0000 0.0000 0.5000  plane waves:    3092
 k-point  22 :   0.1667 0.0000 0.5000  plane waves:    3124
 k-point  23 :   0.3333 0.0000 0.5000  plane waves:    3140
 k-point  24 :   0.5000 0.0000 0.5000  plane waves:    3132
 k-point  25 :   0.0000 0.1667 0.5000  plane waves:    3112
 k-point  26 :   0.1667 0.1667 0.5000  plane waves:    3140
 k-point  27 :   0.1667-0.1667 0.5000  plane waves:    3140
 k-point  28 :   0.3333 0.1667 0.5000  plane waves:    3134
 k-point  29 :   0.3333-0.1667 0.5000  plane waves:    3134
 k-point  30 :   0.5000 0.1667 0.5000  plane waves:    3144
 k-point  31 :   0.0000 0.3333 0.5000  plane waves:    3130
 k-point  32 :   0.1667 0.3333 0.5000  plane waves:    3148
 k-point  33 :   0.1667-0.3333 0.5000  plane waves:    3148
 k-point  34 :   0.3333 0.3333 0.5000  plane waves:    3142
 k-point  35 :   0.3333-0.3333 0.5000  plane waves:    3142
 k-point  36 :   0.5000 0.3333 0.5000  plane waves:    3152
 k-point  37 :   0.0000 0.5000 0.5000  plane waves:    3132
 k-point  38 :   0.1667 0.5000 0.5000  plane waves:    3148
 k-point  39 :   0.3333 0.5000 0.5000  plane waves:    3140
 k-point  40 :   0.5000 0.5000 0.5000  plane waves:    3160

 maximum and minimum number of plane-waves per node :       659      606

 maximum number of plane-waves:      3160
 maximum index in each direction: 
   IXMAX=    5   IYMAX=    7   IZMAX=   17
   IXMIN=   -6   IYMIN=   -7   IZMIN=  -18


 parallel 3D FFT for wavefunctions:
    minimum data exchange during FFTs selected (reduces bandwidth)
 parallel 3D FFT for charge:
    minimum data exchange during FFTs selected (reduces bandwidth)


 total amount of memory used by VASP MPI-rank0    37119. kBytes
=======================================================================

   base      :      30000. kBytes
   nonl-proj :       5406. kBytes
   fftplans  :        334. kBytes
   grid      :        503. kBytes
   one-center:         16. kBytes
   wavefun   :        860. kBytes
 
     INWAV:  cpu time      0.0000: real time      0.0001
 Broyden mixing: mesh for mixing (old mesh)
   NGX = 11   NGY = 15   NGZ = 35
  (NGX  = 36   NGY  = 48   NGZ  =108)
  gives a total of   5775 points

 initial charge density was supplied:
 charge density of overlapping atoms calculated
 number of electron      40.0000000 magnetization 
 keeping initial charge density in first step


--------------------------------------------------------------------------------------------------------


 Maximum index for augmentation-charges           409 (set IRDMAX)


--------------------------------------------------------------------------------------------------------


 First call to EWALD:  gamma=   0.302
 Maximum number of real-space cells 4x 3x 2
 Maximum number of reciprocal cells 2x 2x 5

    FEWALD:  cpu time      0.0011: real time      0.0011


--------------------------------------- Ionic step        1  -------------------------------------------




--------------------------------------- Iteration      1(   1)  ---------------------------------------


    POTLOK:  cpu time      0.0086: real time      0.0087
    SETDIJ:  cpu time      0.2174: real time      0.2179
     EDDAV:  cpu time      0.3194: real time      0.3218
       DOS:  cpu time      0.0010: real time      0.0011
    --------------------------------------------
      LOOP:  cpu time      0.5464: real time      0.5495

 eigenvalue-minimisations  :  2560
 total energy-change (2. order) : 0.1325680E+03  (-0.1287759E+04)
 number of electron      40.0000000 magnetization 
 augmentation part       40.0000000 magnetization 

 Free energy of the ion-electron system (eV)
  ---------------------------------------------------
  alpha Z        PSCENC =        83.74935623
  Ewald energy   TEWEN  =     -1384.29150620
  -Hartree energ DENC   =      -145.13415837
  -exchange      EXHF   =         0.00000000
  -V(xc)+E(xc)   XCENC  =       -33.76353634
  PAW double counting   =      1193.78262552    -1080.73714043
  entropy T*S    EENTRO =        -0.00284333
  eigenvalues    EBANDS =        50.48061095
  atomic energy  EATOM  =      1448.48460880
  Solvation  Ediel_sol  =         0.00000000
  ---------------------------------------------------
  free energy    TOTEN  =       132.56801683 eV

  energy without entropy =      132.57086016  energy(sigma->0) =      132.56943849


--------------------------------------------------------------------------------------------------------




--------------------------------------- Iteration      1(   2)  ---------------------------------------


     EDDAV:  cpu time      0.4391: real time      0.4418
       DOS:  cpu time      0.0005: real time      0.0005
    --------------------------------------------
      LOOP:  cpu time      0.4397: real time      0.4423

 eigenvalue-minimisations  :  3728
 total energy-change (2. order) :-0.1577253E+03  (-0.1530816E+03)
 number of electron      40.0000000 magnetization 
 augmentation part       40.0000000 magnetization 

 Free energy of the ion-electron system (eV)
  ---------------------------------------------------
  alpha Z        PSCENC =        83.74935623
  Ewald energy   TEWEN  =     -1384.29150620
  -Hartree energ DENC   =      -145.13415837
  -exchange      EXHF   =         0.00000000
  -V(xc)+E(xc)   XCENC  =       -33.76353634
  PAW double counting   =      1193.78262552    -1080.73714043
  entropy T*S    EENTRO =        -0.00000000
  eigenvalues    EBANDS =      -107.24755763
  atomic energy  EATOM  =      1448.48460880
  Solvation  Ediel_sol  =         0.00000000
  ---------------------------------------------------
  free energy    TOTEN  =       -25.15730843 eV

  energy without entropy =      -25.15730842  energy(sigma->0) =      -25.15730843


--------------------------------------------------------------------------------------------------------




--------------------------------------- Iteration      1(   3)  ---------------------------------------


     EDDAV:  cpu time      0.3783: real time      0.3806
       DOS:  cpu time      0.0005: real time      0.0005
    --------------------------------------------
      LOOP:  cpu time      0.3788: real time      0.3811

 eigenvalue-minimisations  :  3232
 total energy-change (2. order) :-0.8896569E+01  (-0.8877964E+01)
 number of electron      40.0000000 magnetization 
 augmentation part       40.0000000 magnetization 

 Free energy of the ion-electron system (eV)
  ---------------------------------------------------
  alpha Z        PSCENC =        83.74935623
  Ewald energy   TEWEN  =     -1384.29150620
  -Hartree energ DENC   =      -145.13415837
  -exchange      EXHF   =         0.00000000
  -V(xc)+E(xc)   XCENC  =       -33.76353634
  PAW double counting   =      1193.78262552    -1080.73714043
  entropy T*S    EENTRO =        -0.00000000
  eigenvalues    EBANDS =      -116.14412636
  atomic energy  EATOM  =      1448.48460880
  Solvation  Ediel_sol  =         0.00000000
  ---------------------------------------------------
  free energy    TOTEN  =       -34.05387715 eV

  energy without entropy =      -34.05387715  energy(sigma->0) =      -34.05387715


--------------------------------------------------------------------------------------------------------




--------------------------------------- Iteration      1(   4)  ---------------------------------------


     EDDAV:  cpu time      0.3833: real time      0.3851
       DOS:  cpu time      0.0006: real time      0.0006
    --------------------------------------------
      LOOP:  cpu time      0.3839: real time      0.3857

 eigenvalue-minimisations  :  3280
 total energy-change (2. order) :-0.6293515E-01  (-0.6292647E-01)
 number of electron      40.0000000 magnetization 
 augmentation part       40.0000000 magnetization 

 Free energy of the ion-electron system (eV)
  ---------------------------------------------------
  alpha Z        PSCENC =        83.74935623
  Ewald energy   TEWEN  =     -1384.29150620
  -Hartree energ DENC   =      -145.13415837
  -exchange      EXHF   =         0.00000000
  -V(xc)+E(xc)   XCENC  =       -33.76353634
  PAW double counting   =      1193.78262552    -1080.73714043
  entropy T*S    EENTRO =        -0.00000000
  eigenvalues    EBANDS =      -116.20706151
  atomic energy  EATOM  =      1448.48460880
  Solvation  Ediel_sol  =         0.00000000
  ---------------------------------------------------
  free energy    TOTEN  =       -34.11681230 eV

  energy without entropy =      -34.11681230  energy(sigma->0) =      -34.11681230


--------------------------------------------------------------------------------------------------------




--------------------------------------- Iteration      1(   5)  ---------------------------------------


     EDDAV:  cpu time      0.3849: real time      0.3871
       DOS:  cpu time      0.0005: real time      0.0005
    CHARGE:  cpu time      0.0056: real time      0.0056
    MIXING:  cpu time      0.0004: real time      0.0004
    --------------------------------------------
      LOOP:  cpu time      0.3914: real time      0.3937

 eigenvalue-minimisations  :  3216
 total energy-change (2. order) :-0.4349664E-03  (-0.4349586E-03)
 number of electron      39.9999966 magnetization 
 augmentation part       -7.4098212 magnetization 

 Broyden mixing:
  rms(total) = 0.64687E+00    rms(broyden)= 0.64685E+00
  rms(prec ) = 0.72685E+00
  weight for this iteration     100.00

 Free energy of the ion-electron system (eV)
  ---------------------------------------------------
  alpha Z        PSCENC =        83.74935623
  Ewald energy   TEWEN  =     -1384.29150620
  -Hartree energ DENC   =      -145.13415837
  -exchange      EXHF   =         0.00000000
  -V(xc)+E(xc)   XCENC  =       -33.76353634
  PAW double counting   =      1193.78262552    -1080.73714043
  entropy T*S    EENTRO =        -0.00000000
  eigenvalues    EBANDS =      -116.20749647
  atomic energy  EATOM  =      1448.48460880
  Solvation  Ediel_sol  =         0.00000000
  ---------------------------------------------------
  free energy    TOTEN  =       -34.11724726 eV

  energy without entropy =      -34.11724726  energy(sigma->0) =      -34.11724726


--------------------------------------------------------------------------------------------------------




--------------------------------------- Iteration      1(   6)  ---------------------------------------


    POTLOK:  cpu time      0.0079: real time      0.0080
    SETDIJ:  cpu time      0.2172: real time      0.2177
     EDDAV:  cpu time      0.3660: real time      0.3677
       DOS:  cpu time      0.0006: real time      0.0006
    CHARGE:  cpu time      0.0056: real time      0.0056
    MIXING:  cpu time      0.0005: real time      0.0005
    --------------------------------------------
      LOOP:  cpu time      0.5977: real time      0.6000

 eigenvalue-minimisations  :  3136
 total energy-change (2. order) : 0.3881410E+00  (-0.8188563E-01)
 number of electron      39.9999967 magnetization 
 augmentation part       -7.3508235 magnetization 

 Broyden mixing:
  rms(total) = 0.40734E+00    rms(broyden)= 0.40733E+00
  rms(prec ) = 0.42779E+00
  weight for this iteration     100.00

 eigenvalues of (default mixing * dielectric matrix)
  average eigenvalue GAMMA=   2.1750
  2.1750

 Free energy of the ion-electron system (eV)
  ---------------------------------------------------
  alpha Z        PSCENC =        83.74935623
  Ewald energy   TEWEN  =     -1384.29150620
  -Hartree energ DENC   =      -151.33155793
  -exchange      EXHF   =         0.00000000
  -V(xc)+E(xc)   XCENC  =       -33.13864718
  PAW double counting   =      1455.10364359    -1342.37374333
  entropy T*S    EENTRO =        -0.00000000
  eigenvalues    EBANDS =      -109.93126025
  atomic energy  EATOM  =      1448.48460880
  Solvation  Ediel_sol  =         0.00000000
  ---------------------------------------------------
  free energy    TOTEN  =       -33.72910627 eV

  energy without entropy =      -33.72910627  energy(sigma->0) =      -33.72910627


--------------------------------------------------------------------------------------------------------




--------------------------------------- Iteration      1(   7)  ---------------------------------------


    POTLOK:  cpu time      0.0076: real time      0.0078
    SETDIJ:  cpu time      0.2248: real time      0.2256
     EDDAV:  cpu time      0.3450: real time      0.3469
       DOS:  cpu time      0.0005: real time      0.0005
    CHARGE:  cpu time      0.0053: real time      0.0054
    MIXING:  cpu time      0.0005: real time      0.0005
    --------------------------------------------
      LOOP:  cpu time      0.5837: real time      0.5867

 eigenvalue-minimisations  :  2944
 total energy-change (2. order) : 0.9324451E-02  (-0.2277324E-01)
 number of electron      39.9999967 magnetization 
 augmentation part       -7.3349186 magnetization 

 Broyden mixing:
  rms(total) = 0.13002E+00    rms(broyden)= 0.13002E+00
  rms(prec ) = 0.13853E+00
  weight for this iteration     100.00

 eigenvalues of (default mixing * dielectric matrix)
  average eigenvalue GAMMA=   1.7779
  1.1833  2.3725

 Free energy of the ion-electron system (eV)
  ---------------------------------------------------
  alpha Z        PSCENC =        83.74935623
  Ewald energy   TEWEN  =     -1384.29150620
  -Hartree energ DENC   =      -154.19988528
  -exchange      EXHF   =         0.00000000
  -V(xc)+E(xc)   XCENC  =       -32.65402280
  PAW double counting   =      1775.79951907    -1663.29948792
  entropy T*S    EENTRO =        -0.00000000
  eigenvalues    EBANDS =      -107.30836372
  atomic energy  EATOM  =      1448.48460880
  Solvation  Ediel_sol  =         0.00000000
  ---------------------------------------------------
  free energy    TOTEN  =       -33.71978182 eV

  energy without entropy =      -33.71978182  energy(sigma->0) =      -33.71978182


--------------------------------------------------------------------------------------------------------




--------------------------------------- Iteration      1(   8)  ---------------------------------------


    POTLOK:  cpu time      0.0077: real time      0.0078
    SETDIJ:  cpu time      0.2163: real time      0.2169
     EDDAV:  cpu time      0.4514: real time      0.4543
       DOS:  cpu time      0.0006: real time      0.0007
    CHARGE:  cpu time      0.0103: real time      0.0103
    MIXING:  cpu time      0.0005: real time      0.0005
    --------------------------------------------
      LOOP:  cpu time      0.6868: real time      0.6906

 eigenvalue-minimisations  :  3072
 total energy-change (2. order) : 0.1091792E-02  (-0.2206016E-02)
 number of electron      39.9999967 magnetization 
 augmentation part       -7.3426193 magnetization 

 Broyden mixing:
  rms(total) = 0.18404E-01    rms(broyden)= 0.18404E-01
  rms(prec ) = 0.22283E-01
  weight for this iteration     100.00

 eigenvalues of (default mixing * dielectric matrix)
  average eigenvalue GAMMA=   1.6889
  2.5178  1.2745  1.2745

 Free energy of the ion-electron system (eV)
  ---------------------------------------------------
  alpha Z        PSCENC =        83.74935623
  Ewald energy   TEWEN  =     -1384.29150620
  -Hartree energ DENC   =      -154.41216168
  -exchange      EXHF   =         0.00000000
  -V(xc)+E(xc)   XCENC  =       -32.50511612
  PAW double counting   =      1913.54455943    -1801.10331235
  entropy T*S    EENTRO =        -0.00000000
  eigenvalues    EBANDS =      -107.18511812
  atomic energy  EATOM  =      1448.48460880
  Solvation  Ediel_sol  =         0.00000000
  ---------------------------------------------------
  free energy    TOTEN  =       -33.71869003 eV

  energy without entropy =      -33.71869003  energy(sigma->0) =      -33.71869003


--------------------------------------------------------------------------------------------------------




--------------------------------------- Iteration      1(   9)  ---------------------------------------


    POTLOK:  cpu time      0.0081: real time      0.0082
    SETDIJ:  cpu time      0.2167: real time      0.2172
     EDDAV:  cpu time      0.3874: real time      0.3894
       DOS:  cpu time      0.0006: real time      0.0006
    CHARGE:  cpu time      0.0055: real time      0.0055
    MIXING:  cpu time      0.0005: real time      0.0005
    --------------------------------------------
      LOOP:  cpu time      0.6188: real time      0.6214

 eigenvalue-minimisations  :  3216
 total energy-change (2. order) :-0.4072323E-03  (-0.3537359E-03)
 number of electron      39.9999967 magnetization 
 augmentation part       -7.3409252 magnetization 

 Broyden mixing:
  rms(total) = 0.69990E-02    rms(broyden)= 0.69990E-02
  rms(prec ) = 0.77816E-02
  weight for this iteration     100.00

 eigenvalues of (default mixing * dielectric matrix)
  average eigenvalue GAMMA=   1.7444
  2.3217  2.3217  1.1671  1.1671

 Free energy of the ion-electron system (eV)
  ---------------------------------------------------
  alpha Z        PSCENC =        83.74935623
  Ewald energy   TEWEN  =     -1384.29150620
  -Hartree energ DENC   =      -154.79784201
  -exchange      EXHF   =         0.00000000
  -V(xc)+E(xc)   XCENC  =       -32.45960972
  PAW double counting   =      1929.39347187    -1816.96248525
  entropy T*S    EENTRO =        -0.00000000
  eigenvalues    EBANDS =      -106.83509097
  atomic energy  EATOM  =      1448.48460880
  Solvation  Ediel_sol  =         0.00000000
  ---------------------------------------------------
  free energy    TOTEN  =       -33.71909726 eV

  energy without entropy =      -33.71909726  energy(sigma->0) =      -33.71909726


--------------------------------------------------------------------------------------------------------




--------------------------------------- Iteration      1(  10)  ---------------------------------------


    POTLOK:  cpu time      0.0092: real time      0.0094
    SETDIJ:  cpu time      0.2165: real time      0.2170
     EDDAV:  cpu time      0.4008: real time      0.4028
       DOS:  cpu time      0.0005: real time      0.0005
    CHARGE:  cpu time      0.0053: real time      0.0053
    MIXING:  cpu time      0.0005: real time      0.0005
    --------------------------------------------
      LOOP:  cpu time      0.6328: real time      0.6355

 eigenvalue-minimisations  :  3296
 total energy-change (2. order) :-0.1353388E-03  (-0.3115694E-04)
 number of electron      39.9999967 magnetization 
 augmentation part       -7.3408344 magnetization 

 Broyden mixing:
  rms(total) = 0.25609E-02    rms(broyden)= 0.25609E-02
  rms(prec ) = 0.30832E-02
  weight for this iteration     100.00

 eigenvalues of (default mixing * dielectric matrix)
  average eigenvalue GAMMA=   1.7494
  2.7163  2.4611  1.1183  1.2258  1.2258

 Free energy of the ion-electron system (eV)
  ---------------------------------------------------
  alpha Z        PSCENC =        83.74935623
  Ewald energy   TEWEN  =     -1384.29150620
  -Hartree energ DENC   =      -154.83730702
  -exchange      EXHF   =         0.00000000
  -V(xc)+E(xc)   XCENC  =       -32.45600828
  PAW double counting   =      1921.83508122    -1809.39827660
  entropy T*S    EENTRO =        -0.00000000
  eigenvalues    EBANDS =      -106.80518074
  atomic energy  EATOM  =      1448.48460880
  Solvation  Ediel_sol  =         0.00000000
  ---------------------------------------------------
  free energy    TOTEN  =       -33.71923260 eV

  energy without entropy =      -33.71923260  energy(sigma->0) =      -33.71923260


--------------------------------------------------------------------------------------------------------




--------------------------------------- Iteration      1(  11)  ---------------------------------------


    POTLOK:  cpu time      0.0078: real time      0.0079
    SETDIJ:  cpu time      0.2154: real time      0.2160
     EDDAV:  cpu time      0.3500: real time      0.3522
       DOS:  cpu time      0.0006: real time      0.0006
    CHARGE:  cpu time      0.0054: real time      0.0055
    MIXING:  cpu time      0.0005: real time      0.0005
    --------------------------------------------
      LOOP:  cpu time      0.5798: real time      0.5827

 eigenvalue-minimisations  :  2912
 total energy-change (2. order) :-0.3485150E-04  (-0.4380833E-05)
 number of electron      39.9999967 magnetization 
 augmentation part       -7.3409988 magnetization 

 Broyden mixing:
  rms(total) = 0.12350E-02    rms(broyden)= 0.12350E-02
  rms(prec ) = 0.13731E-02
  weight for this iteration     100.00

 eigenvalues of (default mixing * dielectric matrix)
  average eigenvalue GAMMA=   1.7182
  2.4826  2.4826  2.0770  1.1722  1.1722  0.9226

 Free energy of the ion-electron system (eV)
  ---------------------------------------------------
  alpha Z        PSCENC =        83.74935623
  Ewald energy   TEWEN  =     -1384.29150620
  -Hartree energ DENC   =      -154.87144358
  -exchange      EXHF   =         0.00000000
  -V(xc)+E(xc)   XCENC  =       -32.44879253
  PAW double counting   =      1923.67145850    -1811.23508807
  entropy T*S    EENTRO =        -0.00000000
  eigenvalues    EBANDS =      -106.77786060
  atomic energy  EATOM  =      1448.48460880
  Solvation  Ediel_sol  =         0.00000000
  ---------------------------------------------------
  free energy    TOTEN  =       -33.71926745 eV

  energy without entropy =      -33.71926745  energy(sigma->0) =      -33.71926745


--------------------------------------------------------------------------------------------------------




--------------------------------------- Iteration      1(  12)  ---------------------------------------


    POTLOK:  cpu time      0.0080: real time      0.0082
    SETDIJ:  cpu time      0.2185: real time      0.2192
     EDDAV:  cpu time      0.4529: real time      0.4545
       DOS:  cpu time      0.0005: real time      0.0005
    CHARGE:  cpu time      0.0074: real time      0.0074
    MIXING:  cpu time      0.0006: real time      0.0006
    --------------------------------------------
      LOOP:  cpu time      0.6878: real time      0.6903

 eigenvalue-minimisations  :  3456
 total energy-change (2. order) :-0.1195101E-05  (-0.6279621E-06)
 number of electron      39.9999967 magnetization 
 augmentation part       -7.3408893 magnetization 

 Broyden mixing:
  rms(total) = 0.28789E-03    rms(broyden)= 0.28789E-03
  rms(prec ) = 0.35188E-03
  weight for this iteration     100.00

 eigenvalues of (default mixing * dielectric matrix)
  average eigenvalue GAMMA=   1.7019
  2.9363  2.4383  1.9916  0.9754  1.2804  1.1456  1.1456

 Free energy of the ion-electron system (eV)
  ---------------------------------------------------
  alpha Z        PSCENC =        83.74935623
  Ewald energy   TEWEN  =     -1384.29150620
  -Hartree energ DENC   =      -154.88608090
  -exchange      EXHF   =         0.00000000
  -V(xc)+E(xc)   XCENC  =       -32.44774822
  PAW double counting   =      1922.99147575    -1810.55498116
  entropy T*S    EENTRO =        -0.00000000
  eigenvalues    EBANDS =      -106.76439295
  atomic energy  EATOM  =      1448.48460880
  Solvation  Ediel_sol  =         0.00000000
  ---------------------------------------------------
  free energy    TOTEN  =       -33.71926865 eV

  energy without entropy =      -33.71926865  energy(sigma->0) =      -33.71926865


--------------------------------------------------------------------------------------------------------




--------------------------------------- Iteration      1(  13)  ---------------------------------------


    POTLOK:  cpu time      0.0078: real time      0.0080
    SETDIJ:  cpu time      0.2187: real time      0.2192
     EDDAV:  cpu time      0.2732: real time      0.2750
       DOS:  cpu time      0.0006: real time      0.0005
    --------------------------------------------
      LOOP:  cpu time      0.5003: real time      0.5027

 eigenvalue-minimisations  :  1904
 total energy-change (2. order) :-0.7236181E-06  (-0.1298564E-06)
 number of electron      39.9999967 magnetization 
 augmentation part       -7.3408893 magnetization 

 Free energy of the ion-electron system (eV)
  ---------------------------------------------------
  alpha Z        PSCENC =        83.74935623
  Ewald energy   TEWEN  =     -1384.29150620
  -Hartree energ DENC   =      -154.89099647
  -exchange      EXHF   =         0.00000000
  -V(xc)+E(xc)   XCENC  =       -32.44707747
  PAW double counting   =      1922.94559020    -1810.50897109
  entropy T*S    EENTRO =        -0.00000000
  eigenvalues    EBANDS =      -106.76027336
  atomic energy  EATOM  =      1448.48460880
  Solvation  Ediel_sol  =         0.00000000
  ---------------------------------------------------
  free energy    TOTEN  =       -33.71926937 eV

  energy without entropy =      -33.71926937  energy(sigma->0) =      -33.71926937


--------------------------------------------------------------------------------------------------------




 average (electrostatic) potential at core
  the test charge radii are     1.1631  1.0808
  (the norm of the test charge is              1.0000)
       1 -33.8139       2 -33.8139       3 -33.8139       4 -33.8139       5 -55.3082
       6 -55.3082       7 -55.3082       8 -55.3082
 
 
 
 E-fermi :   3.0716     XC(G=0):  -9.0632     alpha+bet : -8.3433

 Fermi energy:         3.0715685541

 k-point     1 :       0.0000    0.0000    0.0000
  band No.  band energies     occupation 
      1     -11.2126      2.00000
      2     -11.0095      2.00000
      3      -9.9399      2.00000
      4      -9.6398      2.00000
      5      -5.0469      2.00000
      6      -4.4256      2.00000
      7      -3.0927      2.00000
      8      -2.5104      2.00000
      9      -2.0252      2.00000
     10      -0.6751      2.00000
     11      -0.5661      2.00000
     12      -0.4256      2.00000
     13      -0.0132      2.00000
     14       0.0624      2.00000
     15       1.1079      2.00000
     16       1.2728      2.00000
     17       1.3689      2.00000
     18       1.6477      2.00000
     19       2.2452      2.00000
     20       2.8523      2.00000
     21       3.3043      0.00000
     22       5.3201      0.00000
     23       5.5251      0.00000
     24       5.8195      0.00000
     25       5.9894      0.00000
     26       6.5680      0.00000
     27       6.6915      0.00000
     28       6.8074      0.00000
     29       7.5142      0.00000
     30       8.1644      0.00000
     31       8.4047      0.00000
     32       8.8039      0.00000

 k-point     2 :       0.1667    0.0000    0.0000
  band No.  band energies     occupation 
      1     -11.0270      2.00000
      2     -10.8316      2.00000
      3      -9.8370      2.00000
      4      -9.5696      2.00000
      5      -5.2506      2.00000
      6      -4.6692      2.00000
      7      -3.4976      2.00000
      8      -3.0082      2.00000
      9      -1.8408      2.00000
     10      -0.5485      2.00000
     11      -0.4677      2.00000
     12      -0.4081      2.00000
     13      -0.1898      2.00000
     14      -0.0023      2.00000
     15       0.8407      2.00000
     16       1.0838      2.00000
     17       1.4812      2.00000
     18       1.9285      2.00000
     19       2.0314      2.00000
     20       2.7436      2.00000
     21       3.5449      0.00000
     22       5.1063      0.00000
     23       5.6339      0.00000
     24       5.8748      0.00000
     25       6.1285      0.00000
     26       6.3357      0.00000
     27       6.3686      0.00000
     28       6.8705      0.00000
     29       7.2906      0.00000
     30       7.4608      0.00000
     31       7.6634      0.00000
     32       8.5149      0.00000

 k-point     3 :       0.3333    0.0000    0.0000
  band No.  band energies     occupation 
      1     -10.5241      2.00000
      2     -10.3563      2.00000
      3      -9.6884      2.00000
      4      -9.5199      2.00000
      5      -5.6509      2.00000
      6      -5.1072      2.00000
      7      -4.5726      2.00000
      8      -4.0725      2.00000
      9      -1.2595      2.00000
     10      -0.4938      2.00000
     11      -0.3631      2.00000
     12       0.0116      2.00000
     13       0.2162      2.00000
     14       0.4525      2.00000
     15       0.7004      2.00000
     16       1.0683      2.00000
     17       1.3958      2.00000
     18       1.5913      2.00000
     19       2.2130      2.00000
     20       2.3787      2.00000
     21       3.8620      0.00000
     22       4.0733      0.00000
     23       4.4784      0.00000
     24       5.0013      0.00000
     25       5.0859      0.00000
     26       5.3009      0.00000
     27       5.9360      0.00000
     28       6.0134      0.00000
     29       6.4968      0.00000
     30       6.8646      0.00000
     31       6.9591      0.00000
     32       8.2051      0.00000

 k-point     4 :       0.5000    0.0000    0.0000
  band No.  band energies     occupation 
      1      -9.9249      2.00000
      2      -9.9249      2.00000
      3      -9.8048      2.00000
      4      -9.8048      2.00000
      5      -5.5073      2.00000
      6      -5.5073      2.00000
      7      -4.9645      2.00000
      8      -4.9645      2.00000
      9      -0.5173      2.00000
     10      -0.5173      2.00000
     11       0.0901      2.00000
     12       0.0901      2.00000
     13       0.5553      2.00000
     14       0.5553      2.00000
     15       0.9617      2.00000
     16       0.9617      2.00000
     17       1.2361      2.00000
     18       1.2361      2.00000
     19       2.0677      2.00000
     20       2.0677      2.00000
     21       3.9003      0.00000
     22       3.9003      0.00000
     23       4.4154      0.00000
     24       4.4154      0.00000
     25       4.8974      0.00000
     26       4.8974      0.00000
     27       5.1830      0.00000
     28       5.1830      0.00000
     29       5.8378      0.00000
     30       5.8378      0.00000
     31       7.4732      0.00000
     32       7.4732      0.00000

 k-point     5 :       0.0000    0.1667    0.0000
  band No.  band energies     occupation 
      1     -11.0963      2.00000
      2     -10.9037      2.00000
      3      -9.9485      2.00000
      4      -9.6965      2.00000
      5      -5.2874      2.00000
      6      -4.6439      2.00000
      7      -3.7121      2.00000
      8      -3.0389      2.00000
      9      -1.8164      2.00000
     10      -0.2963      2.00000
     11      -0.0980      2.00000
     12       0.0727      2.00000
     13       0.1409      2.00000
     14       0.2039      2.00000
     15       1.2740      2.00000
     16       1.3517      2.00000
     17       1.6846      2.00000
     18       1.6938      2.00000
     19       2.0429      2.00000
     20       2.6831      2.00000
     21       3.6563      0.00000
     22       5.1352      0.00000
     23       5.5007      0.00000
     24       5.5434      0.00000
     25       5.6369      0.00000
     26       6.2037      0.00000
     27       6.3497      0.00000
     28       6.8800      0.00000
     29       7.2082      0.00000
     30       7.5600      0.00000
     31       7.8255      0.00000
     32       8.8072      0.00000

 k-point     6 :       0.1667    0.1667    0.0000
  band No.  band energies     occupation 
      1     -10.9150      2.00000
      2     -10.7329      2.00000
      3      -9.8440      2.00000
      4      -9.6241      2.00000
      5      -5.3531      2.00000
      6      -4.7685      2.00000
      7      -3.9140      2.00000
      8      -3.2888      2.00000
      9      -1.6454      2.00000
     10      -1.0422      2.00000
     11      -0.8047      2.00000
     12      -0.2722      2.00000
     13       0.4970      2.00000
     14       0.5913      2.00000
     15       0.8475      2.00000
     16       0.8492      2.00000
     17       1.6332      2.00000
     18       1.9870      2.00000
     19       2.1723      2.00000
     20       2.7365      2.00000
     21       3.8613      0.00000
     22       4.8727      0.00000
     23       5.0776      0.00000
     24       5.4656      0.00000
     25       5.9018      0.00000
     26       6.4010      0.00000
     27       6.5703      0.00000
     28       6.5903      0.00000
     29       7.4213      0.00000
     30       7.4309      0.00000
     31       7.5158      0.00000
     32       8.6767      0.00000

 k-point     7 :       0.1667   -0.1667    0.0000
  band No.  band energies     occupation 
      1     -10.9177      2.00000
      2     -10.7300      2.00000
      3      -9.8495      2.00000
      4      -9.6172      2.00000
      5      -5.3873      2.00000
      6      -4.7334      2.00000
      7      -3.8504      2.00000
      8      -3.3696      2.00000
      9      -1.6580      2.00000
     10      -0.9812      2.00000
     11      -0.8812      2.00000
     12      -0.2416      2.00000
     13       0.5114      2.00000
     14       0.6182      2.00000
     15       0.8498      2.00000
     16       0.8833      2.00000
     17       1.7509      2.00000
     18       1.8544      2.00000
     19       2.3090      2.00000
     20       2.5005      2.00000
     21       3.7991      0.00000
     22       4.7711      0.00000
     23       5.1885      0.00000
     24       5.2874      0.00000
     25       6.0837      0.00000
     26       6.5220      0.00000
     27       6.8119      0.00000
     28       7.0003      0.00000
     29       7.1329      0.00000
     30       7.2341      0.00000
     31       7.4762      0.00000
     32       8.5031      0.00000

 k-point     8 :       0.3333    0.1667    0.0000
  band No.  band energies     occupation 
      1     -10.4317      2.00000
      2     -10.2803      2.00000
      3      -9.6864      2.00000
      4      -9.5473      2.00000
      5      -5.5563      2.00000
      6      -5.0568      2.00000
      7      -4.6340      2.00000
      8      -4.1097      2.00000
      9      -1.2305      2.00000
     10      -1.1497      2.00000
     11      -1.1404      2.00000
     12      -0.3699      2.00000
     13       0.3352      2.00000
     14       0.5493      2.00000
     15       0.6150      2.00000
     16       0.9367      2.00000
     17       1.1800      2.00000
     18       1.6197      2.00000
     19       1.7831      2.00000
     20       2.6183      2.00000
     21       3.8898      0.00000
     22       4.5771      0.00000
     23       4.7712      0.00000
     24       5.0530      0.00000
     25       5.3768      0.00000
     26       5.9641      0.00000
     27       6.2065      0.00000
     28       6.2984      0.00000
     29       6.8930      0.00000
     30       7.4762      0.00000
     31       7.9342      0.00000
     32       8.1938      0.00000

 k-point     9 :       0.3333   -0.1667    0.0000
  band No.  band energies     occupation 
      1     -10.4381      2.00000
      2     -10.2735      2.00000
      3      -9.6956      2.00000
      4      -9.5360      2.00000
      5      -5.6120      2.00000
      6      -4.9995      2.00000
      7      -4.5771      2.00000
      8      -4.1713      2.00000
      9      -1.2770      2.00000
     10      -1.1635      2.00000
     11      -1.1158      2.00000
     12      -0.3417      2.00000
     13       0.2278      2.00000
     14       0.5888      2.00000
     15       0.7669      2.00000
     16       0.9606      2.00000
     17       1.1287      2.00000
     18       1.6709      2.00000
     19       1.9785      2.00000
     20       2.2584      2.00000
     21       3.8446      0.00000
     22       4.5384      0.00000
     23       4.6530      0.00000
     24       5.2815      0.00000
     25       5.2876      0.00000
     26       5.7412      0.00000
     27       6.3637      0.00000
     28       6.8820      0.00000
     29       7.1095      0.00000
     30       7.3728      0.00000
     31       7.7911      0.00000
     32       7.8968      0.00000

 k-point    10 :       0.5000    0.1667    0.0000
  band No.  band energies     occupation 
      1      -9.8859      2.00000
      2      -9.8807      2.00000
      3      -9.7717      2.00000
      4      -9.7669      2.00000
      5      -5.4370      2.00000
      6      -5.3945      2.00000
      7      -4.9241      2.00000
      8      -4.8817      2.00000
      9      -0.8299      2.00000
     10      -0.7422      2.00000
     11      -0.5714      2.00000
     12      -0.4683      2.00000
     13       0.0961      2.00000
     14       0.1752      2.00000
     15       0.2779      2.00000
     16       0.3473      2.00000
     17       1.2802      2.00000
     18       1.3250      2.00000
     19       2.0004      2.00000
     20       2.2447      2.00000
     21       4.0433      0.00000
     22       4.0641      0.00000
     23       4.8917      0.00000
     24       4.8935      0.00000
     25       5.7906      0.00000
     26       5.8764      0.00000
     27       6.0655      0.00000
     28       6.1751      0.00000
     29       6.6408      0.00000
     30       6.6962      0.00000
     31       6.9775      0.00000
     32       7.5285      0.00000

 k-point    11 :       0.0000    0.3333    0.0000
  band No.  band energies     occupation 
      1     -10.7757      2.00000
      2     -10.6179      2.00000
      3     -10.0449      2.00000
      4      -9.9065      2.00000
      5      -5.5717      2.00000
      6      -4.8756      2.00000
      7      -4.6950      2.00000
      8      -3.9574      2.00000
      9      -1.3067      2.00000
     10       0.2259      2.00000
     11       0.4858      2.00000
     12       0.5443      2.00000
     13       0.6036      2.00000
     14       1.0200      2.00000
     15       1.1954      2.00000
     16       1.2513      2.00000
     17       1.2961      2.00000
     18       2.3143      2.00000
     19       2.6192      2.00000
     20       2.7622      2.00000
     21       4.1750      0.00000
     22       4.2553      0.00000
     23       4.5292      0.00000
     24       5.3400      0.00000
     25       5.5097      0.00000
     26       5.6161      0.00000
     27       5.7874      0.00000
     28       6.3438      0.00000
     29       6.5163      0.00000
     30       6.6793      0.00000
     31       7.5928      0.00000
     32       8.7573      0.00000

 k-point    12 :       0.1667    0.3333    0.0000
  band No.  band energies     occupation 
      1     -10.6112      2.00000
      2     -10.4657      2.00000
      3      -9.9358      2.00000
      4      -9.8121      2.00000
      5      -5.4890      2.00000
      6      -4.8344      2.00000
      7      -4.6767      2.00000
      8      -3.9776      2.00000
      9      -1.1350      2.00000
     10      -1.0551      2.00000
     11      -0.7186      2.00000
     12      -0.1415      2.00000
     13       0.2164      2.00000
     14       0.4356      2.00000
     15       0.7791      2.00000
     16       1.4321      2.00000
     17       1.8609      2.00000
     18       1.9497      2.00000
     19       2.3154      2.00000
     20       2.6467      2.00000
     21       4.2113      0.00000
     22       4.8553      0.00000
     23       5.2325      0.00000
     24       5.4153      0.00000
     25       5.4934      0.00000
     26       5.9023      0.00000
     27       6.4605      0.00000
     28       6.8664      0.00000
     29       6.9498      0.00000
     30       7.4960      0.00000
     31       7.7487      0.00000
     32       8.5487      0.00000

 k-point    13 :       0.1667   -0.3333    0.0000
  band No.  band energies     occupation 
      1     -10.6168      2.00000
      2     -10.4598      2.00000
      3      -9.9419      2.00000
      4      -9.8049      2.00000
      5      -5.5182      2.00000
      6      -4.8087      2.00000
      7      -4.6416      2.00000
      8      -4.0148      2.00000
      9      -1.1617      2.00000
     10      -0.9586      2.00000
     11      -0.8376      2.00000
     12      -0.0930      2.00000
     13       0.1263      2.00000
     14       0.6273      2.00000
     15       0.7618      2.00000
     16       1.4732      2.00000
     17       1.7490      2.00000
     18       2.0042      2.00000
     19       2.3251      2.00000
     20       2.5282      2.00000
     21       4.2002      0.00000
     22       4.7753      0.00000
     23       5.3049      0.00000
     24       5.4311      0.00000
     25       5.6235      0.00000
     26       5.6770      0.00000
     27       6.4136      0.00000
     28       6.9918      0.00000
     29       7.3540      0.00000
     30       7.5509      0.00000
     31       7.6452      0.00000
     32       8.3281      0.00000

 k-point    14 :       0.3333    0.3333    0.0000
  band No.  band energies     occupation 
      1     -10.1942      2.00000
      2     -10.0782      2.00000
      3      -9.7398      2.00000
      4      -9.6404      2.00000
      5      -5.3655      2.00000
      6      -4.8647      2.00000
      7      -4.8292      2.00000
      8      -4.2861      2.00000
      9      -1.8356      2.00000
     10      -1.5883      2.00000
     11      -1.0835      2.00000
     12      -0.8270      2.00000
     13      -0.5794      2.00000
     14       0.1398      2.00000
     15       0.2668      2.00000
     16       0.6110      2.00000
     17       0.6263      2.00000
     18       1.5962      2.00000
     19       1.6738      2.00000
     20       2.5477      2.00000
     21       4.0848      0.00000
     22       5.4442      0.00000
     23       5.5727      0.00000
     24       6.1229      0.00000
     25       6.2929      0.00000
     26       6.6349      0.00000
     27       6.7400      0.00000
     28       7.3485      0.00000
     29       7.7655      0.00000
     30       8.0444      0.00000
     31       8.6275      0.00000
     32       9.0131      0.00000

 k-point    15 :       0.3333   -0.3333    0.0000
  band No.  band energies     occupation 
      1     -10.2071      2.00000
      2     -10.0649      2.00000
      3      -9.7465      2.00000
      4      -9.6319      2.00000
      5      -5.4429      2.00000
      6      -4.7864      2.00000
      7      -4.7507      2.00000
      8      -4.3648      2.00000
      9      -1.8164      2.00000
     10      -1.6198      2.00000
     11      -1.1165      2.00000
     12      -0.8347      2.00000
     13      -0.5395      2.00000
     14      -0.0936      2.00000
     15       0.3730      2.00000
     16       0.7316      2.00000
     17       0.8869      2.00000
     18       1.4110      2.00000
     19       1.9334      2.00000
     20       2.1090      2.00000
     21       4.0494      0.00000
     22       5.4317      0.00000
     23       5.8752      0.00000
     24       6.0186      0.00000
     25       6.0799      0.00000
     26       7.0219      0.00000
     27       7.1168      0.00000
     28       7.3658      0.00000
     29       7.7047      0.00000
     30       7.7605      0.00000
     31       8.3739      0.00000
     32       8.9265      0.00000

 k-point    16 :       0.5000    0.3333    0.0000
  band No.  band energies     occupation 
      1      -9.8013      2.00000
      2      -9.7895      2.00000
      3      -9.7021      2.00000
      4      -9.6908      2.00000
      5      -5.2587      2.00000
      6      -5.1613      2.00000
      7      -4.8248      2.00000
      8      -4.7277      2.00000
      9      -1.4678      2.00000
     10      -1.4219      2.00000
     11      -1.2754      2.00000
     12      -1.2363      2.00000
     13      -0.5802      2.00000
     14      -0.5149      2.00000
     15      -0.2099      2.00000
     16      -0.1235      2.00000
     17       0.7453      2.00000
     18       0.8860      2.00000
     19       1.7237      2.00000
     20       2.2455      2.00000
     21       4.8369      0.00000
     22       4.9666      0.00000
     23       5.9179      0.00000
     24       6.3055      0.00000
     25       6.6453      0.00000
     26       6.8156      0.00000
     27       6.9915      0.00000
     28       7.3738      0.00000
     29       7.9458      0.00000
     30       8.0668      0.00000
     31       8.5035      0.00000
     32       8.5636      0.00000

 k-point    17 :       0.0000    0.5000    0.0000
  band No.  band energies     occupation 
      1     -10.3526      2.00000
      2     -10.3526      2.00000
      3     -10.2503      2.00000
      4     -10.2503      2.00000
      5      -5.3945      2.00000
      6      -5.3945      2.00000
      7      -4.6537      2.00000
      8      -4.6537      2.00000
      9      -0.5424      2.00000
     10      -0.5424      2.00000
     11       0.9707      2.00000
     12       0.9707      2.00000
     13       0.9752      2.00000
     14       0.9752      2.00000
     15       1.2193      2.00000
     16       1.2193      2.00000
     17       2.1062      2.00000
     18       2.1062      2.00000
     19       2.5951      2.00000
     20       2.5951      2.00000
     21       4.4797      0.00000
     22       4.4797      0.00000
     23       4.6703      0.00000
     24       4.6703      0.00000
     25       5.1433      0.00000
     26       5.1433      0.00000
     27       5.8216      0.00000
     28       5.8216      0.00000
     29       5.9494      0.00000
     30       5.9494      0.00000
     31       8.2680      0.00000
     32       8.2680      0.00000

 k-point    18 :       0.1667    0.5000    0.0000
  band No.  band energies     occupation 
      1     -10.2244      2.00000
      2     -10.2194      2.00000
      3     -10.1233      2.00000
      4     -10.1184      2.00000
      5      -5.2988      2.00000
      6      -5.2765      2.00000
      7      -4.5903      2.00000
      8      -4.5722      2.00000
      9      -0.6317      2.00000
     10      -0.5998      2.00000
     11      -0.4098      2.00000
     12      -0.3575      2.00000
     13      -0.2563      2.00000
     14      -0.1851      2.00000
     15       1.0615      2.00000
     16       1.1789      2.00000
     17       1.8216      2.00000
     18       2.1977      2.00000
     19       2.4681      2.00000
     20       2.5280      2.00000
     21       4.5075      0.00000
     22       4.5544      0.00000
     23       5.3707      0.00000
     24       5.4370      0.00000
     25       5.8181      0.00000
     26       5.8697      0.00000
     27       6.7855      0.00000
     28       6.7929      0.00000
     29       6.9791      0.00000
     30       6.9893      0.00000
     31       7.9108      0.00000
     32       8.1402      0.00000

[...]
     32       7.7798      0.00000

 k-point    32 :       0.1667    0.3333    0.5000
  band No.  band energies     occupation 
      1     -10.5458      2.00000
      2     -10.5458      2.00000
      3      -9.8666      2.00000
      4      -9.8666      2.00000
      5      -5.2548      2.00000
      6      -5.2548      2.00000
      7      -4.2671      2.00000
      8      -4.2671      2.00000
      9      -0.9959      2.00000
     10      -0.9959      2.00000
     11      -0.3305      2.00000
     12      -0.3305      2.00000
     13       0.1740      2.00000
     14       0.1740      2.00000
     15       1.0196      2.00000
     16       1.0197      2.00000
     17       1.9475      2.00000
     18       1.9475      2.00000
     19       2.2855      2.00000
     20       2.2855      2.00000
     21       5.0078      0.00000
     22       5.0078      0.00000
     23       5.2202      0.00000
     24       5.2202      0.00000
     25       5.7448      0.00000
     26       5.7448      0.00000
     27       6.7021      0.00000
     28       6.7021      0.00000
     29       7.1506      0.00000
     30       7.1506      0.00000
     31       7.8443      0.00000
     32       7.8443      0.00000

 k-point    33 :       0.1667   -0.3333    0.5000
  band No.  band energies     occupation 
      1     -10.5471      2.00000
      2     -10.5471      2.00000
      3      -9.8646      2.00000
      4      -9.8646      2.00000
      5      -5.2654      2.00000
      6      -5.2654      2.00000
      7      -4.2534      2.00000
      8      -4.2534      2.00000
      9      -0.9734      2.00000
     10      -0.9734      2.00000
     11      -0.3752      2.00000
     12      -0.3752      2.00000
     13       0.1319      2.00000
     14       0.1319      2.00000
     15       1.1229      2.00000
     16       1.1229      2.00000
     17       1.9033      2.00000
     18       1.9033      2.00000
     19       2.3053      2.00000
     20       2.3053      2.00000
     21       4.8822      0.00000
     22       4.8822      0.00000
     23       5.2741      0.00000
     24       5.2741      0.00000
     25       5.8564      0.00000
     26       5.8564      0.00000
     27       6.5274      0.00000
     28       6.5274      0.00000
     29       7.3080      0.00000
     30       7.3080      0.00000
     31       7.7888      0.00000
     32       7.7888      0.00000

 k-point    34 :       0.3333    0.3333    0.5000
  band No.  band energies     occupation 
      1     -10.1424      2.00000
      2     -10.1424      2.00000
      3      -9.6842      2.00000
      4      -9.6842      2.00000
      5      -5.1864      2.00000
      6      -5.1864      2.00000
      7      -4.5031      2.00000
      8      -4.5031      2.00000
      9      -1.7595      2.00000
     10      -1.7595      2.00000
     11      -0.8680      2.00000
     12      -0.8680      2.00000
     13      -0.2563      2.00000
     14      -0.2563      2.00000
     15       0.4600      2.00000
     16       0.4600      2.00000
     17       1.1310      2.00000
     18       1.1310      2.00000
     19       1.8514      2.00000
     20       1.8514      2.00000
     21       5.1987      0.00000
     22       5.1987      0.00000
     23       5.7117      0.00000
     24       5.7117      0.00000
     25       6.4438      0.00000
     26       6.4438      0.00000
     27       7.1190      0.00000
     28       7.1190      0.00000
     29       7.5693      0.00000
     30       7.5693      0.00000
     31       8.9735      0.00000
     32       8.9735      0.00000

 k-point    35 :       0.3333   -0.3333    0.5000
  band No.  band energies     occupation 
      1     -10.1454      2.00000
      2     -10.1454      2.00000
      3      -9.6799      2.00000
      4      -9.6799      2.00000
      5      -5.2147      2.00000
      6      -5.2147      2.00000
      7      -4.4667      2.00000
      8      -4.4667      2.00000
      9      -1.7456      2.00000
     10      -1.7456      2.00000
     11      -0.9404      2.00000
     12      -0.9404      2.00000
     13      -0.2375      2.00000
     14      -0.2375      2.00000
     15       0.4770      2.00000
     16       0.4770      2.00000
     17       1.1438      2.00000
     18       1.1438      2.00000
     19       1.8931      2.00000
     20       1.8931      2.00000
     21       5.0097      0.00000
     22       5.0097      0.00000
     23       5.7240      0.00000
     24       5.7240      0.00000
     25       6.4747      0.00000
     26       6.4747      0.00000
     27       7.3611      0.00000
     28       7.3611      0.00000
     29       7.6069      0.00000
     30       7.6069      0.00000
     31       8.8201      0.00000
     32       8.8201      0.00000

 k-point    36 :       0.5000    0.3333    0.5000
  band No.  band energies     occupation 
      1      -9.7918      2.00000
      2      -9.7918      2.00000
      3      -9.7006      2.00000
      4      -9.7006      2.00000
      5      -5.1807      2.00000
      6      -5.1807      2.00000
      7      -4.8124      2.00000
      8      -4.8124      2.00000
      9      -1.4217      2.00000
     10      -1.4217      2.00000
     11      -1.2957      2.00000
     12      -1.2957      2.00000
     13      -0.4479      2.00000
     14      -0.4479      2.00000
     15      -0.3032      2.00000
     16      -0.3032      2.00000
     17       1.2773      2.00000
     18       1.2773      2.00000
     19       1.4576      2.00000
     20       1.4576      2.00000
     21       5.2871      0.00000
     22       5.2871      0.00000
     23       5.9414      0.00000
     24       5.9414      0.00000
     25       6.5921      0.00000
     26       6.5921      0.00000
     27       7.0230      0.00000
     28       7.0230      0.00000
     29       8.2043      0.00000
     30       8.2043      0.00000
     31       8.4282      0.00000
     32       8.4282      0.00000

 k-point    37 :       0.0000    0.5000    0.5000
  band No.  band energies     occupation 
      1     -10.3452      2.00000
      2     -10.3452      2.00000
      3     -10.2585      2.00000
      4     -10.2585      2.00000
      5      -5.3140      2.00000
      6      -5.3140      2.00000
      7      -4.7740      2.00000
      8      -4.7740      2.00000
      9       0.1905      2.00000
     10       0.1905      2.00000
     11       0.2068      2.00000
     12       0.2068      2.00000
     13       0.9786      2.00000
     14       0.9786      2.00000
     15       0.9890      2.00000
     16       0.9890      2.00000
     17       2.2735      2.00000
     18       2.2735      2.00000
     19       2.5934      2.00000
     20       2.5934      2.00000
     21       4.4763      0.00000
     22       4.4763      0.00000
     23       4.5154      0.00000
     24       4.5154      0.00000
     25       5.7153      0.00000
     26       5.7153      0.00000
     27       5.8727      0.00000
     28       5.8727      0.00000
     29       6.2214      0.00000
     30       6.2214      0.00000
     31       7.4182      0.00000
     32       7.4182      0.00000

 k-point    38 :       0.1667    0.5000    0.5000
  band No.  band energies     occupation 
      1     -10.2153      2.00000
      2     -10.2153      2.00000
      3     -10.1282      2.00000
      4     -10.1282      2.00000
      5      -5.2184      2.00000
      6      -5.2184      2.00000
      7      -4.6824      2.00000
      8      -4.6824      2.00000
      9      -0.5726      2.00000
     10      -0.5726      2.00000
     11      -0.4112      2.00000
     12      -0.4112      2.00000
     13       0.3371      2.00000
     14       0.3371      2.00000
     15       0.4841      2.00000
     16       0.4841      2.00000
     17       2.0038      2.00000
     18       2.0038      2.00000
     19       2.3135      2.00000
     20       2.3135      2.00000
     21       5.1976      0.00000
     22       5.1976      0.00000
     23       5.3608      0.00000
     24       5.3608      0.00000
     25       5.8437      0.00000
     26       5.8437      0.00000
     27       6.6770      0.00000
     28       6.6770      0.00000
     29       7.1119      0.00000
     30       7.1119      0.00000
     31       7.5120      0.00000
     32       7.5120      0.00000

 k-point    39 :       0.3333    0.5000    0.5000
  band No.  band energies     occupation 
      1      -9.9194      2.00000
      2      -9.9194      2.00000
      3      -9.8327      2.00000
      4      -9.8327      2.00000
      5      -5.0840      2.00000
      6      -5.0840      2.00000
      7      -4.6188      2.00000
      8      -4.6188      2.00000
      9      -1.6203      2.00000
     10      -1.6203      2.00000
     11      -1.5235      2.00000
     12      -1.5235      2.00000
     13      -0.0360      2.00000
     14      -0.0360      2.00000
     15       0.0089      2.00000
     16       0.0089      2.00000
     17       1.2546      2.00000
     18       1.2546      2.00000
     19       1.4774      2.00000
     20       1.4774      2.00000
     21       5.3790      0.00000
     22       5.3790      0.00000
     23       6.3714      0.00000
     24       6.3714      0.00000
     25       6.9540      0.00000
     26       6.9540      0.00000
     27       7.2946      0.00000
     28       7.2946      0.00000
     29       8.5448      0.00000
     30       8.5448      0.00000
     31       8.6773      0.00000
     32       8.6773      0.00000

 k-point    40 :       0.5000    0.5000    0.5000
  band No.  band energies     occupation 
      1      -9.7464      2.00000
      2      -9.7464      2.00000
      3      -9.6619      2.00000
      4      -9.6619      2.00000
      5      -5.0824      2.00000
      6      -5.0824      2.00000
      7      -4.7261      2.00000
      8      -4.7261      2.00000
      9      -1.6240      2.00000
     10      -1.6240      2.00000
     11      -1.5862      2.00000
     12      -1.5862      2.00000
     13      -0.7984      2.00000
     14      -0.7984      2.00000
     15      -0.7356      2.00000
     16      -0.7356      2.00000
     17       1.3026      2.00000
     18       1.3026      2.00000
     19       1.4687      2.00000
     20       1.4687      2.00000
     21       5.2470      0.00000
     22       5.2470      0.00000
     23       6.0243      0.00000
     24       6.0243      0.00000
     25       7.5634      0.00000
     26       7.5634      0.00000
     27       7.7925      0.00000
     28       7.7925      0.00000
     29       8.9820      0.00000
     30       8.9820      0.00000
     31       9.3531      0.00000
     32       9.3531      0.00000


--------------------------------------------------------------------------------------------------------


 soft charge-density along one line, spin component            1
         0         1         2         3         4         5         6         7         8         9
 total charge-density along one line
 
 pseudopotential strength for first ion, spin component:            1
 14.619  18.242   0.040   0.045   0.001   0.072   0.081   0.001
 18.242  22.778   0.051   0.057   0.001   0.092   0.102   0.001
  0.040   0.051   3.241  -0.003  -0.000   5.519  -0.004  -0.000
  0.045   0.057  -0.003   3.239   0.000  -0.004   5.515   0.000
  0.001   0.001  -0.000   0.000   3.243  -0.000   0.000   5.522
  0.072   0.092   5.519  -0.004  -0.000   9.456  -0.007  -0.000
  0.081   0.102  -0.004   5.515   0.000  -0.007   9.448   0.000
  0.001   0.001  -0.000   0.000   5.522  -0.000   0.000   9.460
 -0.000  -0.000   0.000  -0.000   0.006   0.000  -0.000   0.012
 -0.005  -0.007   0.011   0.013  -0.000   0.021   0.023  -0.000
 -0.004  -0.005  -0.003   0.011  -0.000  -0.006   0.021  -0.000
  0.000   0.000  -0.000  -0.000   0.012  -0.000  -0.000   0.021
  0.002   0.002  -0.012   0.000   0.000  -0.021   0.000   0.000
 total augmentation occupancy for first ion, spin component:            1
  2.730  -0.698   0.338   0.346   0.011  -0.063  -0.062  -0.003  -0.002  -0.011  -0.003  -0.005   0.009
 -0.698   0.654  -0.430  -0.465  -0.012   0.068   0.073   0.002   0.001   0.006   0.006   0.005  -0.005
  0.338  -0.430   1.231   0.055  -0.001  -0.200   0.003   0.000   0.001   0.042  -0.099   0.000   0.000
  0.346  -0.465   0.055   1.340  -0.012   0.003  -0.215   0.004   0.003  -0.019   0.100   0.007  -0.005
  0.011  -0.012  -0.001  -0.012   1.243   0.000   0.004  -0.214   0.145  -0.000   0.003   0.034   0.001
 -0.063   0.068  -0.200   0.003   0.000   0.037  -0.002  -0.000  -0.000  -0.007   0.017  -0.000   0.000
 -0.062   0.073   0.003  -0.215   0.004  -0.002   0.039  -0.001  -0.000   0.003  -0.017  -0.001   0.001
 -0.003   0.002   0.000   0.004  -0.214  -0.000  -0.001   0.041  -0.025   0.000  -0.001  -0.006  -0.000
 -0.002   0.001   0.001   0.003   0.145  -0.000  -0.000  -0.025   0.031   0.000  -0.001   0.002  -0.000
 -0.011   0.006   0.042  -0.019  -0.000  -0.007   0.003   0.000   0.000   0.011  -0.006   0.000   0.001
 -0.003   0.006  -0.099   0.100   0.003   0.017  -0.017  -0.001  -0.001  -0.006   0.031  -0.001  -0.002
 -0.005   0.005   0.000   0.007   0.034  -0.000  -0.001  -0.006   0.002   0.000  -0.001   0.010  -0.000
  0.009  -0.005   0.000  -0.005   0.001   0.000   0.001  -0.000  -0.000   0.001  -0.002  -0.000   0.008


------------------------ aborting loop because EDIFF is reached ----------------------------------------


    CHARGE:  cpu time      0.0054: real time      0.0054
    FORLOC:  cpu time      0.0002: real time      0.0002
    FORNL :  cpu time      0.0271: real time      0.0272
    STRESS:  cpu time      0.2773: real time      0.2787
    FORCOR:  cpu time      0.0070: real time      0.0070
    FORHAR:  cpu time      0.0016: real time      0.0017
    MIXING:  cpu time      0.0006: real time      0.0006
    OFIELD:  cpu time      0.0000: real time      0.0000

  FORCE on cell =-STRESS in cart. coord.  units (eV):
  Direction    XX          YY          ZZ          XY          YZ          ZX
  --------------------------------------------------------------------------------------
  Alpha Z    83.74936    83.74936    83.74936
  Ewald    -407.27673  -449.49325  -527.52305     2.95686    -0.00000     0.00000
  Hartree    79.17593    62.77177    12.94779     1.72828    -0.00000    -0.00000
  E(xc)    -140.92584  -140.94160  -141.42434     0.00901     0.00000     0.00000
  Local    -232.59685  -179.81404   -56.70438    -5.15239     0.00001    -0.00000
  n-local   240.36561   239.80814   241.88499     0.07695    -0.00000     0.00000
  augment   -11.38441   -11.75870   -12.18743    -0.03406    -0.00000     0.00000
  Kinetic   389.44066   395.75040   399.61339     0.43984     0.00000    -0.00000
  Fock        0.00000     0.00000     0.00000     0.00000     0.00000     0.00000
  -------------------------------------------------------------------------------------
  Total       0.54772     0.07207     0.35632     0.02448    -0.00000    -0.00000
  in kB       4.33736     0.57075     2.82168     0.19384    -0.00000    -0.00001
  external pressure =        2.58 kB  Pullay stress =        0.00 kB


 VOLUME and BASIS-vectors are now :
 -----------------------------------------------------------------------------
  energy-cutoff  :      360.00
  volume of cell :      202.32
      direct lattice vectors                 reciprocal lattice vectors
     3.858100176  0.000000000  0.000000000     0.259194929  0.000000000  0.000000000
     0.000000000  4.526575088  0.000000000     0.000000000  0.220917577  0.000000000
     0.000000000  0.000000000 11.585176468     0.000000000  0.000000000  0.086317200

  length of vectors
     3.858100176  4.526575088 11.585176468     0.259194929  0.220917577  0.086317200


 FORCES acting on ions
    electron-ion (+dipol)            ewald-force                    non-local-force                 convergence-correction
 -----------------------------------------------------------------------------------------------
   0.542E+00 0.140E+02 0.314E+02   -.553E+00 -.165E+02 -.343E+02   0.477E-01 0.249E+01 0.297E+01   0.457E-04 0.346E-04 -.721E-03
   0.542E+00 0.140E+02 -.314E+02   -.553E+00 -.165E+02 0.343E+02   0.477E-01 0.249E+01 -.297E+01   0.457E-04 0.350E-04 0.722E-03
   -.542E+00 -.140E+02 -.314E+02   0.553E+00 0.165E+02 0.343E+02   -.478E-01 -.249E+01 -.297E+01   -.459E-04 -.345E-04 0.722E-03
   -.542E+00 -.140E+02 0.314E+02   0.553E+00 0.165E+02 -.343E+02   -.478E-01 -.249E+01 0.297E+01   -.456E-04 -.347E-04 -.723E-03
   0.500E+00 -.154E+02 -.369E+02   -.482E+00 0.169E+02 0.387E+02   -.492E-01 -.147E+01 -.188E+01   -.108E-03 -.311E-03 0.931E-03
   0.500E+00 -.154E+02 0.369E+02   -.482E+00 0.169E+02 -.387E+02   -.492E-01 -.147E+01 0.188E+01   -.107E-03 -.310E-03 -.930E-03
   -.500E+00 0.154E+02 0.369E+02   0.482E+00 -.169E+02 -.387E+02   0.495E-01 0.147E+01 0.188E+01   0.107E-03 0.311E-03 -.932E-03
   -.500E+00 0.154E+02 -.369E+02   0.482E+00 -.169E+02 0.387E+02   0.495E-01 0.147E+01 -.188E+01   0.108E-03 0.311E-03 0.931E-03
 -----------------------------------------------------------------------------------------------
   0.452E-04 0.152E-04 0.897E-07   0.505E-14 0.000E+00 0.000E+00   0.293E-03 0.193E-03 0.165E-07   -.859E-06 0.122E-05 -.291E-06
 
 
 POSITION                                       TOTAL-FORCE (eV/Angst)
 -----------------------------------------------------------------------------------
      1.74733      4.24060      1.52892         0.037166      0.004973      0.115691
      3.67638      1.97731      4.26367         0.037167      0.004972     -0.115693
      2.89357      4.09092     10.05626        -0.037360     -0.004961     -0.115728
      0.96452      1.82763      7.32150        -0.037360     -0.004960      0.115728
      1.74733      3.71200      4.06767        -0.030922      0.034158     -0.032296
      3.67638      1.44871      1.72492        -0.030922      0.034157      0.032299
      2.89357      0.09295      7.51751         0.031116     -0.034169      0.032695
      0.96452      2.35624      9.86026         0.031115     -0.034169     -0.032696
 -----------------------------------------------------------------------------------
    total drift:                                0.000337      0.000209     -0.000000


--------------------------------------------------------------------------------------------------------



  FREE ENERGIE OF THE ION-ELECTRON SYSTEM (eV)
  ---------------------------------------------------
  free  energy   TOTEN  =       -33.71926937 eV

  energy  without entropy=      -33.71926937  energy(sigma->0) =      -33.71926937
 


--------------------------------------------------------------------------------------------------------


    POTLOK:  cpu time      0.2248: real time      0.2255


--------------------------------------------------------------------------------------------------------


     LOOP+:  cpu time      7.7863: real time      7.8249
    4ORBIT:  cpu time      0.0000: real time      0.0000

 total amount of memory used by VASP MPI-rank0    37119. kBytes
=======================================================================

   base      :      30000. kBytes
   nonl-proj :       5406. kBytes
   fftplans  :        334. kBytes
   grid      :        503. kBytes
   one-center:         16. kBytes
   wavefun   :        860. kBytes
 
  
  
 General timing and accounting informations for this job:
 ========================================================
  
                  Total CPU time used (sec):        9.421
                            User time (sec):        9.169
                          System time (sec):        0.253
                         Elapsed time (sec):        9.722
  
                   Maximum memory used (kb):      175724.
                   Average memory used (kb):          N/A
  
                          Minor page faults:        16892
                          Major page faults:           46
                 Voluntary context switches:         1925
