 vasp.6.4.2 20Jul23 (build Oct 12 2023 10:31:02) complex                         
 executed on              LinuxNV date 2024.11.01  22:01:56
 running  128 mpi-ranks, with    1 threads/rank, on    2 nodes
 distrk:  each k-point on   64 cores,    2 groups
 distr:  one band on NCORE=   8 cores,    8 groups


--------------------------------------------------------------------------------------------------------


 INCAR:
   ENCUT = 520.000000
   SIGMA = 0.050000
   EDIFF = 1.00e-06
   ALGO = N
   GGA = PE
   PREC = Accurate
   SYSTEM = 01_AOPT
   ICHARG = 0
   ISMEAR = 0
   ISPIN = 2
   ISTART = 1
   ISYM = -1
   KPAR = 2
   LORBIT = 11
   NBANDS = 220
   NELM = 100
   NELMIN = 5
   NPAR = 8
   LASPH = .TRUE.
   LCHARG = .FALSE.
   LWAVE = .FALSE.
   LREAL = .FALSE.

 POTCAR:    PAW_PBE Ge 05Jan2001                  
 POTCAR:    PAW_PBE Se 06Sep2000                  
 -----------------------------------------------------------------------------
|                                                                             |
|           W    W    AA    RRRRR   N    N  II  N    N   GGGG   !!!           |
|           W    W   A  A   R    R  NN   N  II  NN   N  G    G  !!!           |
|           W    W  A    A  R    R  N N  N  II  N N  N  G       !!!           |
|           W WW W  AAAAAA  RRRRR   N  N N  II  N  N N  G  GGG   !            |
|           WW  WW  A    A  R   R   N   NN  II  N   NN  G    G                |
|           W    W  A    A  R    R  N    N  II  N    N   GGGG   !!!           |
|                                                                             |
|     You use a magnetic or noncollinear calculation, but did not specify     |
|     the initial magnetic moment with the MAGMOM tag. Note that a            |
|     default of 1 will be used for all atoms. This ferromagnetic setup       |
|     may break the symmetry of the crystal, in particular it may rule        |
|     out finding an antiferromagnetic solution. Thence, we recommend         |
|     setting the initial magnetic moment manually or verifying carefully     |
|     that this magnetic setup is desired.                                    |
|                                                                             |
 -----------------------------------------------------------------------------

 POTCAR:    PAW_PBE Ge 05Jan2001                  
   VRHFIN =Ge: s2p2                                                                                 
   LEXCH  = PE                                                                                      
   EATOM  =   104.9960 eV,    7.7170 Ry                                                             
                                                                                                    
   TITEL  = PAW_PBE Ge 05Jan2001                                                                    
   LULTRA =        F    use ultrasoft PP ?                                                          
   IUNSCR =        1    unscreen: 0-lin 1-nonlin 2-no                                               
   RPACOR =    2.170    partial core radius                                                         
   POMASS =   72.610; ZVAL   =    4.000    mass and valenz                                          
   RCORE  =    2.300    outmost cutoff radius                                                       
   RWIGS  =    2.300; RWIGS  =    1.217    wigner-seitz radius (au A)                               
   ENMAX  =  173.807; ENMIN  =  130.355 eV                                                          
   ICORE  =        3    local potential                                                             
   LCOR   =        T    correct aug charges                                                         
   LPAW   =        T    paw PP                                                                      
   EAUG   =  385.843                                                                                
   DEXC   =    0.000                                                                                
   RMAX   =    2.342    core radius for proj-oper                                                   
   RAUG   =    1.300    factor for augmentation sphere                                              
   RDEP   =    2.318    radius for radial grids                                                     
   RDEPT  =    2.103    core radius for aug-charge                                                  
                                                                                                    
   Atomic configuration                                                                             
   10 entries                                                                                       
     n  l   j            E        occ.                                                              
     1  0  0.50    -10959.8463   2.0000                                                             
     2  0  0.50     -1371.6056   2.0000                                                             
     2  1  1.50     -1198.4791   6.0000                                                             
     3  0  0.50      -168.4733   2.0000                                                             
     3  1  1.50      -115.6019   6.0000                                                             
     3  2  2.50       -29.3106  10.0000                                                             
     4  0  0.50       -11.7309   2.0000                                                             
     4  1  0.50        -3.8952   2.0000                                                             
     4  2  1.50        -4.0817   0.0000                                                             
     4  3  2.50        -4.0817   0.0000                                                             
   Description                                                                                      
     l       E           TYP  RCUT    TYP  RCUT                                                     
     0    -11.7309493     23  2.300                                                                 
     0     -7.4578696     23  2.300                                                                 
     1     -3.8952261     23  2.300                                                                 
     1      6.1178114     23  2.300                                                                 
     2     -4.0817478     23  2.300                                                                 
     3     -1.3605826      7  2.300                                                                 
  local pseudopotential read in
  partial core-charges read in
  partial kinetic energy density read in
  atomic valenz-charges read in
  non local Contribution for L=            0  read in
    real space projection operators read in
  non local Contribution for L=            0  read in
    real space projection operators read in
  non local Contribution for L=            1  read in
    real space projection operators read in
  non local Contribution for L=            1  read in
    real space projection operators read in
  non local Contribution for L=            2  read in
    real space projection operators read in
    PAW grid and wavefunctions read in
 
   number of l-projection  operators is LMAX  =            5
   number of lm-projection operators is LMMAX =           13
 
 POTCAR:    PAW_PBE Se 06Sep2000                  
   VRHFIN =Se: s2p4                                                                                 
   LEXCH  = PE                                                                                      
   EATOM  =   257.1286 eV,   18.8984 Ry                                                             
                                                                                                    
   TITEL  = PAW_PBE Se 06Sep2000                                                                    
   LULTRA =        F    use ultrasoft PP ?                                                          
   IUNSCR =        1    unscreen: 0-lin 1-nonlin 2-no                                               
   RPACOR =    1.900    partial core radius                                                         
   POMASS =   78.960; ZVAL   =    6.000    mass and valenz                                          
   RCORE  =    2.100    outmost cutoff radius                                                       
   RWIGS  =    2.200; RWIGS  =    1.164    wigner-seitz radius (au A)                               
   ENMAX  =  211.555; ENMIN  =  158.666 eV                                                          
   ICORE  =        3    local potential                                                             
   LCOR   =        T    correct aug charges                                                         
   LPAW   =        T    paw PP                                                                      
   EAUG   =  446.842                                                                                
   DEXC   =    0.000                                                                                
   RMAX   =    2.147    core radius for proj-oper                                                   
   RAUG   =    1.300    factor for augmentation sphere                                              
   RDEP   =    2.177    radius for radial grids                                                     
   RDEPT  =    1.928    core radius for aug-charge                                                  
                                                                                                    
   Atomic configuration                                                                             
   10 entries                                                                                       
     n  l   j            E        occ.                                                              
     1  0  0.50    -12503.4787   2.0000                                                             
     2  0  0.50     -1606.9547   2.0000                                                             
     2  1  1.50     -1413.3140   6.0000                                                             
     3  0  0.50      -213.4885   2.0000                                                             
     3  1  1.50      -152.9538   6.0000                                                             
     3  2  2.50       -53.1221  10.0000                                                             
     4  0  0.50       -17.2865   2.0000                                                             
     4  1  0.50        -6.5110   4.0000                                                             
     4  2  2.50        -6.8029   0.0000                                                             
     4  3  2.50        -6.8029   0.0000                                                             
   Description                                                                                      
     l       E           TYP  RCUT    TYP  RCUT                                                     
     0    -17.2865377     23  2.100                                                                 
     0    -15.3094411     23  2.100                                                                 
     1     -6.5110275     23  2.100                                                                 
     1     -0.0695192     23  2.100                                                                 
     2     -6.8029130     23  2.100                                                                 
     3     -1.3605826      7  2.100                                                                 
  local pseudopotential read in
  partial core-charges read in
  partial kinetic energy density read in
  atomic valenz-charges read in
  non local Contribution for L=            0  read in
    real space projection operators read in
  non local Contribution for L=            0  read in
    real space projection operators read in
  non local Contribution for L=            1  read in
    real space projection operators read in
  non local Contribution for L=            1  read in
    real space projection operators read in
  non local Contribution for L=            2  read in
    real space projection operators read in
    PAW grid and wavefunctions read in
 
   number of l-projection  operators is LMAX  =            5
   number of lm-projection operators is LMMAX =           13
 
 -----------------------------------------------------------------------------
|                                                                             |
|               ----> ADVICE to this user running VASP <----                  |
|                                                                             |
|     You have a (more or less) 'large supercell' and for larger cells it     |
|     might be more efficient to use real-space projection operators.         |
|     Therefore, try LREAL= Auto in the INCAR file.                           |
|     Mind: For very accurate calculation, you might also keep the            |
|     reciprocal projection scheme (i.e. LREAL=.FALSE.).                      |
|                                                                             |
 -----------------------------------------------------------------------------

  PAW_PBE Ge 05Jan2001                  :
 energy of atom  1       EATOM= -104.9960
 kinetic energy error for atom=    0.0002 (will be added to EATOM!!)
  PAW_PBE Se 06Sep2000                  :
 energy of atom  2       EATOM= -257.1286
 kinetic energy error for atom=    0.0007 (will be added to EATOM!!)
 
 
 POSCAR: Ge Se
  positions in cartesian coordinates
  No initial velocities read in
 exchange correlation table for  LEXCH =        8
   RHO(1)=    0.500       N(1)  =     2000
   RHO(2)=  100.500       N(2)  =     4000
 


--------------------------------------------------------------------------------------------------------


 ion  position               nearest neighbor table
   1  0.092  0.048  0.131-  45 2.48  54 2.56  55 2.84
   2  0.212  0.871  0.379-  45 2.57  67 2.65  48 2.75
   3  0.558  0.202  0.348-  49 2.44  68 2.62  56 2.70
   4  0.570  0.547  0.391-  69 2.59  50 2.66  72 2.76
   5  0.542  0.860  0.378-  50 2.52  48 2.59  70 2.77
   6  0.868  0.198  0.360-  56 2.51  55 2.54  44 2.60
   7  0.901  0.542  0.378-  72 2.49  71 2.51  47 2.80
   8  0.908  0.871  0.372-  53 2.54  44 2.66  45 2.77
   9  0.076  0.147  0.622-  37 2.46  51 2.58  57 2.74
  10  0.050  0.503  0.642-  43 2.50  52 2.56  58 2.65
  11  0.064  0.791  0.640-  52 2.40  59 2.47  39 2.60
  12  0.388  0.167  0.618-  60 2.63  51 2.67  38 2.80
  13  0.415  0.465  0.623-  38 2.54  41 2.63  61 2.69
  14  0.403  0.827  0.622-  62 2.59  39 2.74  42 2.80
  15  0.754  0.135  0.618-  37 2.51  63 2.55  40 2.57
  16  0.736  0.475  0.644-  41 2.50  43 2.58  64 2.59
  17  0.208  0.520  0.383-  46 2.55  66 2.60  47 2.62
  18  0.251  0.225  0.377-  46 2.52  49 2.62  54 2.64
  19  0.691  0.827  0.598-  42 2.61  65 2.65  40 2.67
  20  0.878  0.669  0.884-  64 2.54  52 2.66  65 2.77
  21  0.896  0.979  0.871-  65 2.56  37 2.72  59 2.75
  22  0.062  0.340  0.131-  55 2.48  46 2.64  71 2.69
  23  0.062  0.700  0.105-  47 2.55  53 2.67  67 2.72
  24  0.379  0.029  0.125-  54 2.51  48 2.54  68 2.77
  25  0.418  0.400  0.128-  66 2.54  69 2.54  49 2.73
  26  0.705  0.020  0.127-  44 2.52  68 2.52  70 2.56
  27  0.745  0.367  0.117-  56 2.53  71 2.65  69 2.85
  28  0.370  0.699  0.107-  67 2.64  66 2.65  50 2.82
  29  0.224  0.332  0.876-  57 2.59  38 2.61  58 2.78
  30  0.244  0.642  0.865-  61 2.51  39 2.59  58 2.61
  31  0.224  0.969  0.866-  59 2.44  62 2.53  51 2.63
  32  0.581  0.303  0.872-  60 2.42  41 2.56  63 2.73
  33  0.575  0.655  0.886-  64 2.58  42 2.72  61 2.73
  34  0.556  0.991  0.889-  62 2.62  40 2.77
  35  0.904  0.319  0.867-  43 2.49  57 2.59  63 2.60
  36  0.741  0.700  0.135-  72 2.48  70 2.61  53 2.77
  37  0.922  0.024  0.633-   9 2.46  15 2.51  21 2.72
  38  0.252  0.344  0.643-  13 2.54  29 2.61  12 2.80
  39  0.240  0.680  0.636-  30 2.59  11 2.60  14 2.74
  40  0.590  0.011  0.644-  15 2.57  19 2.67  34 2.77
  41  0.585  0.342  0.645-  16 2.50  32 2.56  13 2.63
  42  0.560  0.668  0.642-  19 2.61  33 2.72  14 2.80
  43  0.909  0.361  0.648-  35 2.49  10 2.50  16 2.58
  44  0.759  0.021  0.346-  26 2.52   6 2.60   8 2.66
  45  0.072  0.020  0.351-   1 2.48   2 2.57   8 2.77
  46  0.094  0.351  0.366-  18 2.52  17 2.55  22 2.64
  47  0.076  0.677  0.332-  23 2.55  17 2.62   7 2.80
  48  0.390  0.999  0.351-  24 2.54   5 2.59   2 2.75
  49  0.424  0.343  0.366-   3 2.44  18 2.62  25 2.73
  50  0.424  0.698  0.353-   5 2.52   4 2.66  28 2.82
  51  0.236  0.017  0.635-   9 2.58  31 2.63  12 2.67
  52  0.921  0.662  0.649-  11 2.40  10 2.56  20 2.66
  53  0.909  0.846  0.145-   8 2.54  23 2.67  36 2.77
  54  0.248  0.181  0.144-  24 2.51   1 2.56  18 2.64
  55  0.922  0.200  0.140-  22 2.48   6 2.54   1 2.84
  56  0.726  0.339  0.342-   6 2.51  27 2.53   3 2.70
  57  0.070  0.194  0.863-  29 2.59  35 2.59   9 2.74
  58  0.085  0.506  0.878-  30 2.61  10 2.65  29 2.78
  59  0.071  0.847  0.853-  31 2.44  11 2.47  21 2.75
  60  0.430  0.182  0.850-  32 2.42  12 2.63
  61  0.404  0.520  0.857-  30 2.51  13 2.69  33 2.73
  62  0.395  0.860  0.852-  31 2.53  14 2.59  34 2.62
  63  0.756  0.174  0.843-  15 2.55  35 2.60  32 2.73
  64  0.735  0.525  0.871-  20 2.54  33 2.58  16 2.59
  65  0.749  0.842  0.827-  21 2.56  19 2.65  20 2.77
  66  0.259  0.523  0.156-  25 2.54  17 2.60  28 2.65
  67  0.221  0.845  0.142-  28 2.64   2 2.65  23 2.72
  68  0.559  0.159  0.116-  26 2.52   3 2.62  24 2.77
  69  0.580  0.521  0.160-  25 2.54   4 2.59  27 2.85
  70  0.594  0.848  0.136-  26 2.56  36 2.61   5 2.77
  71  0.913  0.493  0.159-   7 2.51  27 2.65  22 2.69
  72  0.751  0.672  0.356-  36 2.48   7 2.49   4 2.76
 

IMPORTANT INFORMATION: All symmetrisations will be switched off!
NOSYMM: (Re-)initialisation of all symmetry stuff for point group C_1.


----------------------------------------------------------------------------------------

                                     Primitive cell                                     

  volume of cell :    1726.1749

  direct lattice vectors                    reciprocal lattice vectors
    12.424189833  0.000003134  0.000000721     0.080488146 -0.000000020 -0.000000006
     0.000003160 12.526994722 -0.000003661    -0.000000020  0.079827606  0.000000030
     0.000000828 -0.000004173 11.090977694    -0.000000005  0.000000026  0.090163377

  length of vectors
    12.424189833 12.526994722 11.090977694     0.080488146  0.079827606  0.090163377

  position of ions in fractional coordinates (direct lattice)
     0.092028365  0.048228030  0.130948421
     0.211882510  0.870965049  0.379187855
     0.558073294  0.201656412  0.347609178
     0.570421831  0.547028836  0.391382682
     0.542173137  0.860006866  0.378265051
     0.868302077  0.197901673  0.360419333
     0.900693793  0.541580545  0.378171923
     0.908216873  0.871067182  0.372371417
     0.075764481  0.147359244  0.621893950
     0.050468012  0.502640949  0.641854919
     0.063676549  0.791304032  0.640356389
     0.387806764  0.166682312  0.618027373
     0.415382686  0.465165349  0.623101937
     0.403054691  0.826908319  0.622144833
     0.753887750  0.134718774  0.617545800
     0.735867601  0.474549102  0.644119369
     0.208158468  0.519641231  0.383378538
     0.250972599  0.224630134  0.376873752
     0.690807255  0.827079392  0.597622257
     0.878346753  0.669128782  0.883537932
     0.895721248  0.979352328  0.870967353
     0.062123959  0.339725249  0.130919038
     0.062145350  0.700163703  0.104517001
     0.379256063  0.029444106  0.124563675
     0.418385438  0.399536667  0.128185217
     0.705301132  0.019827987  0.126765389
     0.745078476  0.367014173  0.117118721
     0.369787852  0.698530426  0.106638069
     0.224078544  0.332329930  0.875949856
     0.244402311  0.641737401  0.865465351
     0.224462032  0.969224894  0.866071153
     0.580760749  0.302860611  0.872346325
     0.574916797  0.655275097  0.886137217
     0.556222479  0.990722958  0.889364694
     0.904037458  0.319019722  0.867181346
     0.741499909  0.700025644  0.134863628
     0.921688094  0.024347900  0.632980140
     0.252239716  0.343661987  0.642830718
     0.240329112  0.679875413  0.636058970
     0.590355883  0.011150215  0.643924423
     0.585478064  0.342152464  0.645450523
     0.560451134  0.668374550  0.641682240
     0.908889787  0.360880372  0.647665361
     0.759406766  0.021421435  0.345629724
     0.072063594  0.020195358  0.351485674
     0.093927658  0.351447867  0.365507576
     0.075849702  0.676520432  0.332242520
     0.390153010  0.998907715  0.350908805
     0.424323011  0.343181225  0.365952585
     0.423801938  0.697711031  0.353330862
     0.235804584  0.016535696  0.635464591
     0.921315469  0.661774805  0.648815243
     0.909145631  0.845955874  0.145132042
     0.248268356  0.180677784  0.143662805
     0.921609023  0.199541534  0.139724140
     0.725519327  0.339276156  0.342063688
     0.069967679  0.193837169  0.863174056
     0.085108148  0.506393797  0.877780057
     0.071370321  0.847104754  0.853431028
     0.430090425  0.182474088  0.850089819
     0.404389570  0.520184583  0.857097701
     0.395056983  0.860133322  0.852117173
     0.755580193  0.174014778  0.842829164
     0.734806005  0.524829153  0.870770877
     0.749047092  0.841779083  0.826579867
     0.258716829  0.523494799  0.155539707
     0.221136602  0.845414692  0.142058239
     0.559304072  0.159241327  0.115943903
     0.579871950  0.520516209  0.160114130
     0.593800703  0.848026782  0.136124611
     0.912512444  0.493264171  0.158678795
     0.750718672  0.671537202  0.355811394

  ion indices of the primitive-cell ions
   primitive index   ion index
                 1           1
                 2           2
                 3           3
                 4           4
                 5           5
                 6           6
                 7           7
                 8           8
                 9           9
                10          10
                11          11
                12          12
                13          13
                14          14
                15          15
                16          16
                17          17
                18          18
                19          19
                20          20
                21          21
                22          22
                23          23
                24          24
                25          25
                26          26
                27          27
                28          28
                29          29
                30          30
                31          31
                32          32
                33          33
                34          34
                35          35
                36          36
                37          37
                38          38
                39          39
                40          40
                41          41
                42          42
                43          43
                44          44
                45          45
                46          46
                47          47
                48          48
                49          49
                50          50
                51          51
                52          52
                53          53
                54          54
                55          55
                56          56
                57          57
                58          58
                59          59
                60          60
                61          61
                62          62
                63          63
                64          64
                65          65
                66          66
                67          67
                68          68
                69          69
                70          70
                71          71
                72          72

----------------------------------------------------------------------------------------

 
 
 KPOINTS: KPOINTS created by Atomic Simulation Env

Automatic generation of k-mesh.
 Grid dimensions read from file:
 generate k-points for:    2    2    2

 Generating k-lattice:

  Cartesian coordinates                     Fractional coordinates (reciprocal lattice)
     0.040244073 -0.000000010 -0.000000003     0.500000000 -0.000000000  0.000000000
    -0.000000010  0.039913803  0.000000015     0.000000000  0.500000000 -0.000000000
    -0.000000003  0.000000013  0.045081688    -0.000000000  0.000000000  0.500000000

  Length of vectors
     0.040244073  0.039913803  0.045081688

  Shift w.r.t. Gamma in fractional coordinates (k-lattice)
     0.000000000  0.000000000  0.000000000

 
 Subroutine IBZKPT returns following result:
 ===========================================
 
 Found      8 irreducible k-points:
 
 Following reciprocal coordinates:
            Coordinates               Weight
  0.000000  0.000000  0.000000      1.000000
  0.500000  0.000000  0.000000      1.000000
  0.000000  0.500000  0.000000      1.000000
  0.500000  0.500000  0.000000      1.000000
  0.000000  0.000000  0.500000      1.000000
  0.500000  0.000000  0.500000      1.000000
  0.000000  0.500000  0.500000      1.000000
  0.500000  0.500000  0.500000      1.000000
 
 Following cartesian coordinates:
            Coordinates               Weight
  0.000000  0.000000  0.000000      1.000000
  0.040244 -0.000000 -0.000000      1.000000
 -0.000000  0.039914  0.000000      1.000000
  0.040244  0.039914  0.000000      1.000000
 -0.000000  0.000000  0.045082      1.000000
  0.040244  0.000000  0.045082      1.000000
 -0.000000  0.039914  0.045082      1.000000
  0.040244  0.039914  0.045082      1.000000
 
 -----------------------------------------------------------------------------
|                                                                             |
|           W    W    AA    RRRRR   N    N  II  N    N   GGGG   !!!           |
|           W    W   A  A   R    R  NN   N  II  NN   N  G    G  !!!           |
|           W    W  A    A  R    R  N N  N  II  N N  N  G       !!!           |
|           W WW W  AAAAAA  RRRRR   N  N N  II  N  N N  G  GGG   !            |
|           WW  WW  A    A  R   R   N   NN  II  N   NN  G    G                |
|           W    W  A    A  R    R  N    N  II  N    N   GGGG   !!!           |
|                                                                             |
|     The number of bands has been changed from the values supplied in        |
|     the INCAR file. This is a result of running the parallel version.       |
|     The orbitals not found in the WAVECAR file will be initialized with     |
|     random numbers, which is usually adequate. For correlated               |
|     calculations, however, you should redo the groundstate calculation.     |
|     I found NBANDS = 220. Now, NBANDS = 224.                                |
|                                                                             |
 -----------------------------------------------------------------------------



--------------------------------------------------------------------------------------------------------




 Dimension of arrays:
   k-points           NKPTS =      8   k-points in BZ     NKDIM =      8   number of bands    NBANDS=    224
   number of dos      NEDOS =    301   number of ions     NIONS =     72
   non local maximal  LDIM  =      5   non local SUM 2l+1 LMDIM =     13
   total plane-waves  NPLWV = 774144
   max r-space proj   IRMAX =      1   max aug-charges    IRDMAX=  24571
   dimension x,y,z NGX =    96 NGY =   96 NGZ =   84
   dimension x,y,z NGXF=   192 NGYF=  192 NGZF=  168
   support grid    NGXF=   192 NGYF=  192 NGZF=  168
   ions per type =              36  36
   NGX,Y,Z   is equivalent  to a cutoff of  12.85, 12.74, 12.59 a.u.
   NGXF,Y,Z  is equivalent  to a cutoff of  25.69, 25.48, 25.18 a.u.

 SYSTEM =  01_AOPT                                 
 POSCAR =  Ge Se                                   

 Startparameter for this run:
   NWRITE =      2    write-flag & timer
   PREC   = accura    normal or accurate (medium, high low for compatibility)
   ISTART =      0    job   : 0-new  1-cont  2-samecut
   ICHARG =      2    charge: 1-file 2-atom 10-const
   ISPIN  =      2    spin polarized calculation?
   LNONCOLLINEAR =      F non collinear calculations
   LSORBIT =      F    spin-orbit coupling
   INIWAV =      1    electr: 0-lowe 1-rand  2-diag
   LASPH  =      T    aspherical Exc in radial PAW
 Electronic Relaxation 1
   ENCUT  =  520.0 eV  38.22 Ry    6.18 a.u.  23.10 23.29 20.62*2*pi/ulx,y,z
   ENINI  =  520.0     initial cutoff
   ENAUG  =  446.8 eV  augmentation charge cutoff
   NELM   =    100;   NELMIN=  5; NELMDL=  0     # of ELM steps 
   EDIFF  = 0.1E-05   stopping-criterion for ELM
   LREAL  =      F    real-space projection
   NLSPLINE    = F    spline interpolate recip. space projectors
   LCOMPAT=      F    compatible to vasp.4.4
   GGA_COMPAT  = T    GGA compatible to vasp.4.4-vasp.4.6
   LMAXPAW     = -100 max onsite density
   LMAXMIX     =    2 max onsite mixed and CHGCAR
   VOSKOWN=      0    Vosko Wilk Nusair interpolation
   ROPT   =    0.00000   0.00000
 Ionic relaxation
   EDIFFG = 0.1E-04   stopping-criterion for IOM
   NSW    =      0    number of steps for IOM
   NBLOCK =      1;   KBLOCK =      1    inner block; outer block 
   IBRION =     -1    ionic relax: 0-MD 1-quasi-New 2-CG
   NFREE  =      0    steps in history (QN), initial steepest desc. (CG)
   ISIF   =      2    stress and relaxation
   IWAVPR =     10    prediction:  0-non 1-charg 2-wave 3-comb
   ISYM   =     -1    0-nonsym 1-usesym 2-fastsym
   LCORR  =      T    Harris-Foulkes like correction to forces

   POTIM  = 0.5000    time-step for ionic-motion
   TEIN   =    0.0    initial temperature
   TEBEG  =    0.0;   TEEND  =   0.0 temperature during run
   SMASS  =  -3.00    Nose mass-parameter (am)
   estimated Nose-frequenzy (Omega)   =  0.10E-29 period in steps = 0.13E+47 mass=  -0.353E-26a.u.
   SCALEE = 1.0000    scale energy and forces
   NPACO  =    256;   APACO  = 10.0  distance and # of slots for P.C.
   PSTRESS=    0.0 pullay stress

  Mass of Ions in am
   POMASS =  72.61 78.96
  Ionic Valenz
   ZVAL   =   4.00  6.00
  Atomic Wigner-Seitz radii
   RWIGS  =  -1.00 -1.00
  virtual crystal weights 
   VCA    =   1.00  1.00
   NELECT =     360.0000    total number of electrons
   NUPDOWN=      -1.0000    fix difference up-down

 DOS related values:
   EMIN   =  10.00;   EMAX   =-10.00  energy-range for DOS
   EFERMI =   0.00;   METHOD = LEGACY      
   ISMEAR =     0;   SIGMA  =   0.05  broadening in eV -4-tet -1-fermi 0-gaus

 Electronic relaxation 2 (details)
   IALGO  =     38    algorithm
   LDIAG  =      T    sub-space diagonalisation (order eigenvalues)
   LSUBROT=      F    optimize rotation matrix (better conditioning)
   TURBO    =      0    0=normal 1=particle mesh
   IRESTART =      0    0=no restart 2=restart with 2 vectors
   NREBOOT  =      0    no. of reboots
   NMIN     =      0    reboot dimension
   EREF     =   0.00    reference energy to select bands
   IMIX   =      4    mixing-type and parameters
     AMIX     =   0.40;   BMIX     =  1.00
     AMIX_MAG =   1.60;   BMIX_MAG =  1.00
     AMIN     =   0.10
     WC   =   100.;   INIMIX=   1;  MIXPRE=   1;  MAXMIX= -45

 Intra band minimization:
   WEIMIN = 0.0000     energy-eigenvalue tresh-hold
   EBREAK =  0.11E-08  absolut break condition
   DEPER  =   0.30     relativ break condition  

   TIME   =   0.40     timestep for ELM

  volume/ion in A,a.u.               =      23.97       161.79
  Fermi-wavevector in a.u.,A,eV,Ry     =   0.970839  1.834620 12.823888  0.942529
  Thomas-Fermi vector in A             =   2.101007
 
 Write flags
   LWAVE        =      F    write WAVECAR
   LDOWNSAMPLE  =      F    k-point downsampling of WAVECAR
   LCHARG       =      F    write CHGCAR
   LVTOT        =      F    write LOCPOT, total local potential
   LVHAR        =      F    write LOCPOT, Hartree potential only
   LELF         =      F    write electronic localiz. function (ELF)
   LORBIT       =     11    0 simple, 1 ext, 2 COOP (PROOUT), +10 PAW based schemes


 Dipole corrections
   LMONO  =      F    monopole corrections only (constant potential shift)
   LDIPOL =      F    correct potential (dipole corrections)
   IDIPOL =      0    1-x, 2-y, 3-z, 4-all directions 
   EPSILON=  1.0000000 bulk dielectric constant

 Exchange correlation treatment:
   GGA     =    PE    GGA type
   LEXCH   =     8    internal setting for exchange type
   LIBXC   =     F    Libxc                    
   VOSKOWN =     0    Vosko Wilk Nusair interpolation
   LHFCALC =     F    Hartree Fock is set to
   LHFONE  =     F    Hartree Fock one center treatment
   AEXX    =    0.0000 exact exchange contribution

 Linear response parameters
   LEPSILON=     F    determine dielectric tensor
   LRPA    =     F    only Hartree local field effects (RPA)
   LNABLA  =     F    use nabla operator in PAW spheres
   LVEL    =     F    velocity operator in full k-point grid
   CSHIFT  =0.1000    complex shift for real part using Kramers Kronig
   OMEGAMAX=  -1.0    maximum frequency
   DEG_THRESHOLD= 0.2000000E-02 threshold for treating states as degnerate
   RTIME   =   -0.100 relaxation time in fs
  (WPLASMAI=    0.000 imaginary part of plasma frequency in eV, 0.658/RTIME)
   DFIELD  = 0.0000000 0.0000000 0.0000000 field for delta impulse in time
 
  Optional k-point grid parameters
   LKPOINTS_OPT  =     F    use optional k-point grid
   KPOINTS_OPT_MODE=     1    mode for optional k-point grid
 
 Orbital magnetization related:
   ORBITALMAG=     F  switch on orbital magnetization
   LCHIMAG   =     F  perturbation theory with respect to B field
   DQ        =  0.001000  dq finite difference perturbation B field
   LLRAUG    =     F  two centre corrections for induced B field
   LBONE     =     F  B-component reconstruction in AE one-centre
   LVGVCALC  =     T  calculate vGv susceptibility
   LVGVAPPL  =     F  apply vGv susceptibility instead of pGv for G=0

 Random number generation:
   RANDOM_GENERATOR = DEFAULT
   PCG_SEED         = not used


--------------------------------------------------------------------------------------------------------


 Static calculation
 charge density and potential will be updated during run
 spin polarized calculation
 Variant of blocked Davidson
 Davidson routine will perform the subspace rotation
 perform sub-space diagonalisation
    after iterative eigenvector-optimisation
 modified Broyden-mixing scheme, WC =      100.0
 initial mixing is a Kerker type mixing with AMIX =  0.4000 and BMIX =      1.0000
 Hartree-type preconditioning will be used
 using additional bands            44
 reciprocal scheme for non local part
 use partial core corrections
 calculate Harris-corrections to forces 
   (improved forces if not selfconsistent)
 use gradient corrections 
 use of overlap-Matrix (Vanderbilt PP)
 Gauss-broadening in eV      SIGMA  =   0.05


--------------------------------------------------------------------------------------------------------


  energy-cutoff  :      520.00
  volume of cell :     1726.17
      direct lattice vectors                 reciprocal lattice vectors
    12.424189833  0.000003134  0.000000721     0.080488146 -0.000000020 -0.000000006
     0.000003160 12.526994722 -0.000003661    -0.000000020  0.079827606  0.000000030
     0.000000828 -0.000004173 11.090977694    -0.000000005  0.000000026  0.090163377

  length of vectors
    12.424189833 12.526994722 11.090977694     0.080488146  0.079827606  0.090163377


 
 k-points in units of 2pi/SCALE and weight: KPOINTS created by Atomic Simulation Env
   0.00000000  0.00000000  0.00000000       0.125
   0.04024407 -0.00000001 -0.00000000       0.125
  -0.00000001  0.03991380  0.00000002       0.125
   0.04024406  0.03991379  0.00000001       0.125
  -0.00000000  0.00000001  0.04508169       0.125
   0.04024407  0.00000000  0.04508169       0.125
  -0.00000001  0.03991382  0.04508170       0.125
   0.04024406  0.03991381  0.04508170       0.125
 
 k-points in reciprocal lattice and weights: KPOINTS created by Atomic Simulation Env
   0.00000000  0.00000000  0.00000000       0.125
   0.50000000  0.00000000  0.00000000       0.125
   0.00000000  0.50000000  0.00000000       0.125
   0.50000000  0.50000000  0.00000000       0.125
   0.00000000  0.00000000  0.50000000       0.125
   0.50000000  0.00000000  0.50000000       0.125
   0.00000000  0.50000000  0.50000000       0.125
   0.50000000  0.50000000  0.50000000       0.125
 
 position of ions in fractional coordinates (direct lattice) 
   0.09202837  0.04822803  0.13094842
   0.21188251  0.87096505  0.37918786
   0.55807329  0.20165641  0.34760918
   0.57042183  0.54702884  0.39138268
   0.54217314  0.86000687  0.37826505
   0.86830208  0.19790167  0.36041933
   0.90069379  0.54158054  0.37817192
   0.90821687  0.87106718  0.37237142
   0.07576448  0.14735924  0.62189395
   0.05046801  0.50264095  0.64185492
   0.06367655  0.79130403  0.64035639
   0.38780676  0.16668231  0.61802737
   0.41538269  0.46516535  0.62310194
   0.40305469  0.82690832  0.62214483
   0.75388775  0.13471877  0.61754580
   0.73586760  0.47454910  0.64411937
   0.20815847  0.51964123  0.38337854
   0.25097260  0.22463013  0.37687375
   0.69080725  0.82707939  0.59762226
   0.87834675  0.66912878  0.88353793
   0.89572125  0.97935233  0.87096735
   0.06212396  0.33972525  0.13091904
   0.06214535  0.70016370  0.10451700
   0.37925606  0.02944411  0.12456368
   0.41838544  0.39953667  0.12818522
   0.70530113  0.01982799  0.12676539
   0.74507848  0.36701417  0.11711872
   0.36978785  0.69853043  0.10663807
   0.22407854  0.33232993  0.87594986
   0.24440231  0.64173740  0.86546535
   0.22446203  0.96922489  0.86607115
   0.58076075  0.30286061  0.87234632
   0.57491680  0.65527510  0.88613722
   0.55622248  0.99072296  0.88936469
   0.90403746  0.31901972  0.86718135
   0.74149991  0.70002564  0.13486363
   0.92168809  0.02434790  0.63298014
   0.25223972  0.34366199  0.64283072
   0.24032911  0.67987541  0.63605897
   0.59035588  0.01115022  0.64392442
   0.58547806  0.34215246  0.64545052
   0.56045113  0.66837455  0.64168224
   0.90888979  0.36088037  0.64766536
   0.75940677  0.02142143  0.34562972
   0.07206359  0.02019536  0.35148567
   0.09392766  0.35144787  0.36550758
   0.07584970  0.67652043  0.33224252
   0.39015301  0.99890771  0.35090881
   0.42432301  0.34318122  0.36595259
   0.42380194  0.69771103  0.35333086
   0.23580458  0.01653570  0.63546459
   0.92131547  0.66177480  0.64881524
   0.90914563  0.84595587  0.14513204
   0.24826836  0.18067778  0.14366281
   0.92160902  0.19954153  0.13972414
   0.72551933  0.33927616  0.34206369
   0.06996768  0.19383717  0.86317406
   0.08510815  0.50639380  0.87778006
   0.07137032  0.84710475  0.85343103
   0.43009042  0.18247409  0.85008982
   0.40438957  0.52018458  0.85709770
   0.39505698  0.86013332  0.85211717
   0.75558019  0.17401478  0.84282916
   0.73480600  0.52482915  0.87077088
   0.74904709  0.84177908  0.82657987
   0.25871683  0.52349480  0.15553971
   0.22113660  0.84541469  0.14205824
   0.55930407  0.15924133  0.11594390
   0.57987195  0.52051621  0.16011413
   0.59380070  0.84802678  0.13612461
   0.91251244  0.49326417  0.15867879
   0.75071867  0.67153720  0.35581139
 
 position of ions in cartesian coordinates  (Angst):
   1.14337814  0.60415202  1.45234591
   2.63247160 10.91057365  4.20556101
   6.93360948  2.52614911  3.85532530
   7.08703117  6.85262749  4.34081501
   6.73606501 10.77330159  4.19532649
  10.78795076  2.47911443  3.99740268
  11.19039269  6.78437787  4.19429503
  11.28386190 10.91185529  4.12996054
   0.94131328  1.84596612  6.89741144
   0.62702628  6.29657800  7.11879679
   0.79113257  9.91265896  7.10217558
   4.81818589  2.08802708  6.85452748
   5.16079533  5.82712257  6.91080829
   5.00763112 10.35867481  6.90019172
   9.36644545  1.68762116  6.84918675
   9.14256079  5.94467371  7.14391235
   2.58620228  6.50954201  4.25204107
   3.11813223  2.81393972  4.17989774
   8.58272358 10.36081885  6.62821259
  10.91274964  8.38217179  9.79929768
  11.12861463 12.26834061  9.65987654
   0.77184104  4.25573605  1.45201893
   0.77210793  8.77094677  1.15919321
   4.71194952  0.36884683  1.38153311
   5.19810148  5.00499450  1.42169822
   8.76279532  0.24838678  1.40595254
   9.25699768  4.59758645  1.29896032
   4.59431677  8.75048768  1.18271815
   2.78399615  4.16309232  9.71513926
   3.03650345  8.03903819  9.59885473
   2.78876268 12.14147222  9.60557245
   7.21548348  3.79393145  9.67517294
   7.14287822  8.20862579  9.82812613
   6.91061753 12.41077930  9.86392076
  11.23193473  3.99635759  9.61788845
   9.21253796  8.76921931  1.49576746
  11.45122845  0.30500626  7.02036919
   3.13387573  4.30505000  7.12962007
   2.98589718  8.51679381  7.05451353
   7.33469413  0.13967785  7.14175180
   7.27409223  4.28614125  7.15867653
   6.96315392  8.37272354  7.11688137
  11.29222092  4.52074666  7.18324140
   9.43501418  0.26834714  3.83337203
   0.89533213  0.25298591  3.89831975
   1.16697647  4.40258434  4.05383516
   0.94237351  8.47476674  3.68489195
   4.84733851 12.51331143  3.89191836
   5.27187103  4.29902920  4.05877101
   5.26539822  8.74022225  3.91878246
   2.92968149  0.20714067  7.04792371
  11.44660091  8.29004966  7.19599363
  11.29540070 10.59728701  1.60965379
   3.08453387  2.26334983  1.59336049
  11.45024620  2.49965804  1.54967726
   9.01399120  4.25011146  3.79382002
   0.86929306  2.42819381  9.57344354
   1.05740211  6.34358902  9.73543725
   0.88672180 10.61167345  9.46538144
   5.34352636  2.28584974  9.42832687
   5.02421514  6.51634721  9.50604987
   4.90826637 10.77488326  9.45080969
   9.38747300  2.17988105  9.34779936
   9.12937168  6.57453069  9.65769898
   9.30630661 10.54496103  9.16757632
   3.21434878  6.55781675  1.72508569
   2.74744591 10.59050548  1.57556183
   6.94890056  1.99481653  1.28593106
   7.20444096  6.52050495  1.77582076
   7.37749545 10.62322832  1.50975235
  11.33722952  6.17911987  1.75990183
   9.32707371  8.41234386  3.94629432
 


--------------------------------------------------------------------------------------------------------


 k-point   1 :   0.0000 0.0000 0.0000  plane waves:   46437
 k-point   2 :   0.5000 0.0000 0.0000  plane waves:   46530
 k-point   3 :   0.0000 0.5000 0.0000  plane waves:   46430
 k-point   4 :   0.5000 0.5000 0.0000  plane waves:   46488
 k-point   5 :   0.0000 0.0000 0.5000  plane waves:   46542
 k-point   6 :   0.5000 0.0000 0.5000  plane waves:   46460
 k-point   7 :   0.0000 0.5000 0.5000  plane waves:   46504
 k-point   8 :   0.5000 0.5000 0.5000  plane waves:   46424

 maximum and minimum number of plane-waves per node :      5849     5766

 maximum number of plane-waves:     46542
 maximum index in each direction: 
   IXMAX=   23   IYMAX=   23   IZMAX=   20
   IXMIN=  -23   IYMIN=  -23   IZMIN=  -21


 parallel 3D FFT for wavefunctions:
    minimum data exchange during FFTs selected (reduces bandwidth)
 parallel 3D FFT for charge:
    minimum data exchange during FFTs selected (reduces bandwidth)


 total amount of memory used by VASP MPI-rank0   110925. kBytes
=======================================================================

   base      :      30000. kBytes
   nonl-proj :      16400. kBytes
   fftplans  :       6180. kBytes
   grid      :      15593. kBytes
   one-center:        146. kBytes
   wavefun   :      42606. kBytes
 
     INWAV:  cpu time      0.0000: real time      0.0001
 Broyden mixing: mesh for mixing (old mesh)
   NGX = 47   NGY = 47   NGZ = 41
  (NGX  =192   NGY  =192   NGZ  =168)
  gives a total of  90569 points

 initial charge density was supplied:
 charge density of overlapping atoms calculated
 number of electron     360.0000000 magnetization      72.0000000
 keeping initial charge density in first step


--------------------------------------------------------------------------------------------------------


 Maximum index for augmentation-charges           925 (set IRDMAX)


--------------------------------------------------------------------------------------------------------


 First call to EWALD:  gamma=   0.148
 Maximum number of real-space cells 3x 3x 3
 Maximum number of reciprocal cells 3x 3x 3

    FEWALD:  cpu time      0.0021: real time      0.0021


--------------------------------------- Ionic step        1  -------------------------------------------




--------------------------------------- Iteration      1(   1)  ---------------------------------------


    POTLOK:  cpu time      0.1395: real time      0.1406
    SETDIJ:  cpu time      0.6105: real time      0.6122
     EDDAV:  cpu time      8.6522: real time      8.6986
       DOS:  cpu time      0.0021: real time      0.0021
    --------------------------------------------
      LOOP:  cpu time      9.4042: real time      9.4535

 eigenvalue-minimisations  :  7168
 total energy-change (2. order) : 0.1825669E+04  (-0.1420027E+05)
 number of electron     360.0000000 magnetization      72.0000000
 augmentation part      360.0000000 magnetization      72.0000000

 Free energy of the ion-electron system (eV)
  ---------------------------------------------------
  alpha Z        PSCENC =       795.11065601
  Ewald energy   TEWEN  =    -12816.76308033
  -Hartree energ DENC   =     -1138.72300570
  -exchange      EXHF   =         0.00000000
  -V(xc)+E(xc)   XCENC  =      -293.08971664
  PAW double counting   =     10738.42099860    -9719.93139476
  entropy T*S    EENTRO =        -0.01939527
  eigenvalues    EBANDS =      1224.21259698
  atomic energy  EATOM  =     13036.45147835
  Solvation  Ediel_sol  =         0.00000000
  ---------------------------------------------------
  free energy    TOTEN  =      1825.66913723 eV

  energy without entropy =     1825.68853251  energy(sigma->0) =     1825.67883487


--------------------------------------------------------------------------------------------------------




--------------------------------------- Iteration      1(   2)  ---------------------------------------


     EDDAV:  cpu time      9.8472: real time      9.9120
       DOS:  cpu time      0.0018: real time      0.0018
    --------------------------------------------
      LOOP:  cpu time      9.8490: real time      9.9139

 eigenvalue-minimisations  :  8472
 total energy-change (2. order) :-0.1888841E+04  (-0.1813629E+04)
 number of electron     360.0000000 magnetization      72.0000000
 augmentation part      360.0000000 magnetization      72.0000000

 Free energy of the ion-electron system (eV)
  ---------------------------------------------------
  alpha Z        PSCENC =       795.11065601
  Ewald energy   TEWEN  =    -12816.76308033
  -Hartree energ DENC   =     -1138.72300570
  -exchange      EXHF   =         0.00000000
  -V(xc)+E(xc)   XCENC  =      -293.08971664
  PAW double counting   =     10738.42099860    -9719.93139476
  entropy T*S    EENTRO =        -0.01561133
  eigenvalues    EBANDS =      -664.63208398
  atomic energy  EATOM  =     13036.45147835
  Solvation  Ediel_sol  =         0.00000000
  ---------------------------------------------------
  free energy    TOTEN  =       -63.17175979 eV

  energy without entropy =      -63.15614845  energy(sigma->0) =      -63.16395412


--------------------------------------------------------------------------------------------------------




--------------------------------------- Iteration      1(   3)  ---------------------------------------


     EDDAV:  cpu time      9.9841: real time     10.0465
       DOS:  cpu time      0.0012: real time      0.0012
    --------------------------------------------
      LOOP:  cpu time      9.9853: real time     10.0477

 eigenvalue-minimisations  :  8640
 total energy-change (2. order) :-0.2183878E+03  (-0.2128742E+03)
 number of electron     360.0000000 magnetization      72.0000000
 augmentation part      360.0000000 magnetization      72.0000000

 Free energy of the ion-electron system (eV)
  ---------------------------------------------------
  alpha Z        PSCENC =       795.11065601
  Ewald energy   TEWEN  =    -12816.76308033
  -Hartree energ DENC   =     -1138.72300570
  -exchange      EXHF   =         0.00000000
  -V(xc)+E(xc)   XCENC  =      -293.08971664
  PAW double counting   =     10738.42099860    -9719.93139476
  entropy T*S    EENTRO =        -0.00031252
  eigenvalues    EBANDS =      -883.03521155
  atomic energy  EATOM  =     13036.45147835
  Solvation  Ediel_sol  =         0.00000000
  ---------------------------------------------------
  free energy    TOTEN  =      -281.55958854 eV

  energy without entropy =     -281.55927602  energy(sigma->0) =     -281.55943228


--------------------------------------------------------------------------------------------------------




--------------------------------------- Iteration      1(   4)  ---------------------------------------


     EDDAV:  cpu time     10.0955: real time     10.1550
       DOS:  cpu time      0.0017: real time      0.0017
    --------------------------------------------
      LOOP:  cpu time     10.0972: real time     10.1567

 eigenvalue-minimisations  :  8672
 total energy-change (2. order) :-0.7735128E+01  (-0.7645594E+01)
 number of electron     360.0000000 magnetization      72.0000000
 augmentation part      360.0000000 magnetization      72.0000000

 Free energy of the ion-electron system (eV)
  ---------------------------------------------------
  alpha Z        PSCENC =       795.11065601
  Ewald energy   TEWEN  =    -12816.76308033
  -Hartree energ DENC   =     -1138.72300570
  -exchange      EXHF   =         0.00000000
  -V(xc)+E(xc)   XCENC  =      -293.08971664
  PAW double counting   =     10738.42099860    -9719.93139476
  entropy T*S    EENTRO =        -0.00010129
  eigenvalues    EBANDS =      -890.77055108
  atomic energy  EATOM  =     13036.45147835
  Solvation  Ediel_sol  =         0.00000000
  ---------------------------------------------------
  free energy    TOTEN  =      -289.29471685 eV

  energy without entropy =     -289.29461555  energy(sigma->0) =     -289.29466620


--------------------------------------------------------------------------------------------------------




--------------------------------------- Iteration      1(   5)  ---------------------------------------


     EDDAV:  cpu time     10.4412: real time     10.4967
       DOS:  cpu time      0.0011: real time      0.0011
    CHARGE:  cpu time      0.4351: real time      0.4371
    MIXING:  cpu time      0.0072: real time      0.0072
    --------------------------------------------
      LOOP:  cpu time     10.8846: real time     10.9422

 eigenvalue-minimisations  :  9112
 total energy-change (2. order) :-0.3071981E+00  (-0.3064432E+00)
 number of electron     359.9999990 magnetization      48.8443911
 augmentation part      -66.7734536 magnetization      49.0560573

 Broyden mixing:
  rms(total) = 0.29435E+01    rms(broyden)= 0.29435E+01
  rms(prec ) = 0.30908E+01
  weight for this iteration     100.00

 Free energy of the ion-electron system (eV)
  ---------------------------------------------------
  alpha Z        PSCENC =       795.11065601
  Ewald energy   TEWEN  =    -12816.76308033
  -Hartree energ DENC   =     -1138.72300570
  -exchange      EXHF   =         0.00000000
  -V(xc)+E(xc)   XCENC  =      -293.08971664
  PAW double counting   =     10738.42099860    -9719.93139476
  entropy T*S    EENTRO =        -0.00010223
  eigenvalues    EBANDS =      -891.07774820
  atomic energy  EATOM  =     13036.45147835
  Solvation  Ediel_sol  =         0.00000000
  ---------------------------------------------------
  free energy    TOTEN  =      -289.60191491 eV

  energy without entropy =     -289.60181267  energy(sigma->0) =     -289.60186379


--------------------------------------------------------------------------------------------------------




--------------------------------------- Iteration      1(   6)  ---------------------------------------


    POTLOK:  cpu time      0.1357: real time      0.1369
    SETDIJ:  cpu time      0.6147: real time      0.6167
     EDDAV:  cpu time      9.3811: real time      9.4377
       DOS:  cpu time      0.0018: real time      0.0018
    CHARGE:  cpu time      0.4324: real time      0.4341
    MIXING:  cpu time      0.0079: real time      0.0080
    --------------------------------------------
      LOOP:  cpu time     10.5737: real time     10.6351

 eigenvalue-minimisations  :  7848
 total energy-change (2. order) : 0.1040627E+00  (-0.2558255E+01)
 number of electron     359.9999990 magnetization      27.8320695
 augmentation part      -66.1683137 magnetization      29.0090607

 Broyden mixing:
  rms(total) = 0.17436E+01    rms(broyden)= 0.17436E+01
  rms(prec ) = 0.17812E+01
  weight for this iteration     100.00

 eigenvalues of (default mixing * dielectric matrix)
  average eigenvalue GAMMA=   1.0116
  1.0116

 Free energy of the ion-electron system (eV)
  ---------------------------------------------------
  alpha Z        PSCENC =       795.11065601
  Ewald energy   TEWEN  =    -12816.76308033
  -Hartree energ DENC   =     -1191.28593438
  -exchange      EXHF   =         0.00000000
  -V(xc)+E(xc)   XCENC  =      -286.37762318
  PAW double counting   =     13101.67111903   -12086.81108293
  entropy T*S    EENTRO =        -0.00001321
  eigenvalues    EBANDS =      -841.49337154
  atomic energy  EATOM  =     13036.45147835
  Solvation  Ediel_sol  =         0.00000000
  ---------------------------------------------------
  free energy    TOTEN  =      -289.49785219 eV

  energy without entropy =     -289.49783899  energy(sigma->0) =     -289.49784559


--------------------------------------------------------------------------------------------------------




--------------------------------------- Iteration      1(   7)  ---------------------------------------


    POTLOK:  cpu time      0.1313: real time      0.1322
    SETDIJ:  cpu time      0.6125: real time      0.6146
     EDDAV:  cpu time      9.4725: real time      9.5476
       DOS:  cpu time      0.0011: real time      0.0011
    CHARGE:  cpu time      0.4157: real time      0.4177
    MIXING:  cpu time      0.0073: real time      0.0074
    --------------------------------------------
      LOOP:  cpu time     10.6405: real time     10.7205

 eigenvalue-minimisations  :  8016
 total energy-change (2. order) :-0.7306842E+01  (-0.8525476E+00)
 number of electron     359.9999990 magnetization       8.8736642
 augmentation part      -66.1507216 magnetization       9.5436093

 Broyden mixing:
  rms(total) = 0.91292E+00    rms(broyden)= 0.91292E+00
  rms(prec ) = 0.92935E+00
  weight for this iteration     100.00

 eigenvalues of (default mixing * dielectric matrix)
  average eigenvalue GAMMA=   1.4727
  0.8617  2.0838

 Free energy of the ion-electron system (eV)
  ---------------------------------------------------
  alpha Z        PSCENC =       795.11065601
  Ewald energy   TEWEN  =    -12816.76308033
  -Hartree energ DENC   =     -1208.78240623
  -exchange      EXHF   =         0.00000000
  -V(xc)+E(xc)   XCENC  =      -289.27628785
  PAW double counting   =     15291.35057322   -14278.24305398
  entropy T*S    EENTRO =        -0.00000000
  eigenvalues    EBANDS =      -826.65257378
  atomic energy  EATOM  =     13036.45147835
  Solvation  Ediel_sol  =         0.00000000
  ---------------------------------------------------
  free energy    TOTEN  =      -296.80469459 eV

  energy without entropy =     -296.80469459  energy(sigma->0) =     -296.80469459


--------------------------------------------------------------------------------------------------------




--------------------------------------- Iteration      1(   8)  ---------------------------------------


    POTLOK:  cpu time      0.1305: real time      0.1312
    SETDIJ:  cpu time      0.6128: real time      0.6148
     EDDAV:  cpu time      9.5597: real time      9.6148
       DOS:  cpu time      0.0011: real time      0.0011
    CHARGE:  cpu time      0.4246: real time      0.4263
    MIXING:  cpu time      0.0075: real time      0.0075
    --------------------------------------------
      LOOP:  cpu time     10.7361: real time     10.7955

 eigenvalue-minimisations  :  8128
 total energy-change (2. order) :-0.3198971E+01  (-0.1786393E+00)
 number of electron     359.9999990 magnetization       4.2927452
 augmentation part      -66.1500684 magnetization       4.5894812

 Broyden mixing:
  rms(total) = 0.31854E+00    rms(broyden)= 0.31854E+00
  rms(prec ) = 0.32419E+00
  weight for this iteration     100.00

 eigenvalues of (default mixing * dielectric matrix)
  average eigenvalue GAMMA=   1.3677
  2.5170  0.9270  0.6591

 Free energy of the ion-electron system (eV)
  ---------------------------------------------------
  alpha Z        PSCENC =       795.11065601
  Ewald energy   TEWEN  =    -12816.76308033
  -Hartree energ DENC   =     -1214.61343629
  -exchange      EXHF   =         0.00000000
  -V(xc)+E(xc)   XCENC  =      -288.81603188
  PAW double counting   =     17174.82697000   -16162.77740090
  entropy T*S    EENTRO =        -0.00000000
  eigenvalues    EBANDS =      -823.42282099
  atomic energy  EATOM  =     13036.45147835
  Solvation  Ediel_sol  =         0.00000000
  ---------------------------------------------------
  free energy    TOTEN  =      -300.00366603 eV

  energy without entropy =     -300.00366603  energy(sigma->0) =     -300.00366603


--------------------------------------------------------------------------------------------------------




--------------------------------------- Iteration      1(   9)  ---------------------------------------


    POTLOK:  cpu time      0.1305: real time      0.1312
    SETDIJ:  cpu time      0.6134: real time      0.6154
     EDDAV:  cpu time     10.4255: real time     10.4813
       DOS:  cpu time      0.0012: real time      0.0012
    CHARGE:  cpu time      0.4203: real time      0.4224
    MIXING:  cpu time      0.0099: real time      0.0099
    --------------------------------------------
      LOOP:  cpu time     11.6009: real time     11.6615

 eigenvalue-minimisations  :  9040
 total energy-change (2. order) :-0.3473595E+00  (-0.3987716E-01)
 number of electron     359.9999990 magnetization       2.3102690
 augmentation part      -66.1851122 magnetization       2.4603479

 Broyden mixing:
  rms(total) = 0.14633E+00    rms(broyden)= 0.14633E+00
  rms(prec ) = 0.14821E+00
  weight for this iteration     100.00

 eigenvalues of (default mixing * dielectric matrix)
  average eigenvalue GAMMA=   1.3276
  2.6366  1.2222  0.8294  0.6223

 Free energy of the ion-electron system (eV)
  ---------------------------------------------------
  alpha Z        PSCENC =       795.11065601
  Ewald energy   TEWEN  =    -12816.76308033
  -Hartree energ DENC   =     -1213.72460622
  -exchange      EXHF   =         0.00000000
  -V(xc)+E(xc)   XCENC  =      -288.84671048
  PAW double counting   =     17450.39511422   -16438.68173225
  entropy T*S    EENTRO =        -0.00000000
  eigenvalues    EBANDS =      -824.29214483
  atomic energy  EATOM  =     13036.45147835
  Solvation  Ediel_sol  =         0.00000000
  ---------------------------------------------------
  free energy    TOTEN  =      -300.35102554 eV

  energy without entropy =     -300.35102554  energy(sigma->0) =     -300.35102554


--------------------------------------------------------------------------------------------------------




--------------------------------------- Iteration      1(  10)  ---------------------------------------


    POTLOK:  cpu time      0.1309: real time      0.1316
    SETDIJ:  cpu time      0.6133: real time      0.6151
     EDDAV:  cpu time      9.5954: real time      9.6471
       DOS:  cpu time      0.0006: real time      0.0006
    CHARGE:  cpu time      0.4203: real time      0.4222
    MIXING:  cpu time      0.0075: real time      0.0075
    --------------------------------------------
      LOOP:  cpu time     10.7681: real time     10.8242

 eigenvalue-minimisations  :  8144
 total energy-change (2. order) :-0.9721946E-01  (-0.8994463E-02)
 number of electron     359.9999990 magnetization       0.7748198
 augmentation part      -66.1859022 magnetization       0.8424430

 Broyden mixing:
  rms(total) = 0.73691E-01    rms(broyden)= 0.73691E-01
  rms(prec ) = 0.74806E-01
  weight for this iteration     100.00

 eigenvalues of (default mixing * dielectric matrix)
  average eigenvalue GAMMA=   1.3778
  2.6950  1.7847  0.9653  0.8177  0.6265

 Free energy of the ion-electron system (eV)
  ---------------------------------------------------
  alpha Z        PSCENC =       795.11065601
  Ewald energy   TEWEN  =    -12816.76308033
  -Hartree energ DENC   =     -1213.96670127
  -exchange      EXHF   =         0.00000000
  -V(xc)+E(xc)   XCENC  =      -288.84233315
  PAW double counting   =     17453.20925948   -16441.50536311
  entropy T*S    EENTRO =        -0.00000000
  eigenvalues    EBANDS =      -824.14216096
  atomic energy  EATOM  =     13036.45147835
  Solvation  Ediel_sol  =         0.00000000
  ---------------------------------------------------
  free energy    TOTEN  =      -300.44824499 eV

  energy without entropy =     -300.44824499  energy(sigma->0) =     -300.44824499


--------------------------------------------------------------------------------------------------------




--------------------------------------- Iteration      1(  11)  ---------------------------------------


    POTLOK:  cpu time      0.1311: real time      0.1320
    SETDIJ:  cpu time      0.6124: real time      0.6141
     EDDAV:  cpu time     10.2646: real time     10.3195
       DOS:  cpu time      0.0016: real time      0.0016
    CHARGE:  cpu time      0.4228: real time      0.4244
    MIXING:  cpu time      0.0077: real time      0.0077
    --------------------------------------------
      LOOP:  cpu time     11.4403: real time     11.4994

 eigenvalue-minimisations  :  8784
 total energy-change (2. order) :-0.3194452E-01  (-0.3500253E-02)
 number of electron     359.9999990 magnetization       0.1944033
 augmentation part      -66.1718037 magnetization       0.2138086

 Broyden mixing:
  rms(total) = 0.29023E-01    rms(broyden)= 0.29023E-01
  rms(prec ) = 0.29439E-01
  weight for this iteration     100.00

 eigenvalues of (default mixing * dielectric matrix)
  average eigenvalue GAMMA=   1.4045
  2.8934  2.1915  1.1624  0.8548  0.7017  0.6231

 Free energy of the ion-electron system (eV)
  ---------------------------------------------------
  alpha Z        PSCENC =       795.11065601
  Ewald energy   TEWEN  =    -12816.76308033
  -Hartree energ DENC   =     -1215.07402273
  -exchange      EXHF   =         0.00000000
  -V(xc)+E(xc)   XCENC  =      -288.79812429
  PAW double counting   =     17376.96271538   -16365.22852617
  entropy T*S    EENTRO =        -0.00000000
  eigenvalues    EBANDS =      -823.14128573
  atomic energy  EATOM  =     13036.45147835
  Solvation  Ediel_sol  =         0.00000000
  ---------------------------------------------------
  free energy    TOTEN  =      -300.48018951 eV

  energy without entropy =     -300.48018951  energy(sigma->0) =     -300.48018951


--------------------------------------------------------------------------------------------------------




--------------------------------------- Iteration      1(  12)  ---------------------------------------


    POTLOK:  cpu time      0.1300: real time      0.1336
    SETDIJ:  cpu time      0.6121: real time      0.6144
     EDDAV:  cpu time     10.1243: real time     10.1857
       DOS:  cpu time      0.0007: real time      0.0007
    CHARGE:  cpu time      0.4266: real time      0.4281
    MIXING:  cpu time      0.0077: real time      0.0077
    --------------------------------------------
      LOOP:  cpu time     11.3013: real time     11.3701

 eigenvalue-minimisations  :  8648
 total energy-change (2. order) :-0.3640770E-02  (-0.4665937E-03)
 number of electron     359.9999990 magnetization       0.0682597
 augmentation part      -66.1713546 magnetization       0.0731109

 Broyden mixing:
  rms(total) = 0.11161E-01    rms(broyden)= 0.11161E-01
  rms(prec ) = 0.11745E-01
  weight for this iteration     100.00

 eigenvalues of (default mixing * dielectric matrix)
  average eigenvalue GAMMA=   1.3663
  3.0016  2.3286  1.2060  0.8837  0.8837  0.6079  0.6531

 Free energy of the ion-electron system (eV)
  ---------------------------------------------------
  alpha Z        PSCENC =       795.11065601
  Ewald energy   TEWEN  =    -12816.76308033
  -Hartree energ DENC   =     -1215.20206102
  -exchange      EXHF   =         0.00000000
  -V(xc)+E(xc)   XCENC  =      -288.79527265
  PAW double counting   =     17341.93781484   -16330.18099677
  entropy T*S    EENTRO =        -0.00000000
  eigenvalues    EBANDS =      -823.04236871
  atomic energy  EATOM  =     13036.45147835
  Solvation  Ediel_sol  =         0.00000000
  ---------------------------------------------------
  free energy    TOTEN  =      -300.48383028 eV

  energy without entropy =     -300.48383028  energy(sigma->0) =     -300.48383028


--------------------------------------------------------------------------------------------------------




--------------------------------------- Iteration      1(  13)  ---------------------------------------


    POTLOK:  cpu time      0.1300: real time      0.1307
    SETDIJ:  cpu time      0.6128: real time      0.6148
     EDDAV:  cpu time     11.1239: real time     11.1861
       DOS:  cpu time      0.0008: real time      0.0008
    CHARGE:  cpu time      0.4216: real time      0.4235
    MIXING:  cpu time      0.0095: real time      0.0096
    --------------------------------------------
      LOOP:  cpu time     12.2988: real time     12.3655

 eigenvalue-minimisations  :  9784
 total energy-change (2. order) :-0.1483527E-03  (-0.5589732E-04)
 number of electron     359.9999990 magnetization       0.0177641
 augmentation part      -66.1729444 magnetization       0.0188907

 Broyden mixing:
  rms(total) = 0.49387E-02    rms(broyden)= 0.49387E-02
  rms(prec ) = 0.51394E-02
  weight for this iteration     100.00

 eigenvalues of (default mixing * dielectric matrix)
  average eigenvalue GAMMA=   1.3559
  3.0518  2.4316  1.1561  1.1561  0.9365  0.8598  0.6477  0.6074

 Free energy of the ion-electron system (eV)
  ---------------------------------------------------
  alpha Z        PSCENC =       795.11065601
  Ewald energy   TEWEN  =    -12816.76308033
  -Hartree energ DENC   =     -1215.10285139
  -exchange      EXHF   =         0.00000000
  -V(xc)+E(xc)   XCENC  =      -288.80399901
  PAW double counting   =     17329.18640754   -16317.41865710
  entropy T*S    EENTRO =        -0.00000000
  eigenvalues    EBANDS =      -823.14393269
  atomic energy  EATOM  =     13036.45147835
  Solvation  Ediel_sol  =         0.00000000
  ---------------------------------------------------
  free energy    TOTEN  =      -300.48397863 eV

  energy without entropy =     -300.48397863  energy(sigma->0) =     -300.48397863


--------------------------------------------------------------------------------------------------------




--------------------------------------- Iteration      1(  14)  ---------------------------------------


    POTLOK:  cpu time      0.1309: real time      0.1316
    SETDIJ:  cpu time      0.6128: real time      0.6146
     EDDAV:  cpu time      9.8245: real time      9.8871
       DOS:  cpu time      0.0009: real time      0.0009
    CHARGE:  cpu time      0.4274: real time      0.4293
    MIXING:  cpu time      0.0080: real time      0.0080
    --------------------------------------------
      LOOP:  cpu time     11.0046: real time     11.0715

 eigenvalue-minimisations  :  8336
 total energy-change (2. order) :-0.2088669E-04  (-0.1078681E-04)
 number of electron     359.9999990 magnetization       0.0048248
 augmentation part      -66.1725755 magnetization       0.0052296

 Broyden mixing:
  rms(total) = 0.17074E-02    rms(broyden)= 0.17074E-02
  rms(prec ) = 0.18077E-02
  weight for this iteration     100.00

 eigenvalues of (default mixing * dielectric matrix)
  average eigenvalue GAMMA=   1.3452
  3.0859  2.4616  1.5415  1.2086  0.8862  0.8862  0.7856  0.6100  0.6410

 Free energy of the ion-electron system (eV)
  ---------------------------------------------------
  alpha Z        PSCENC =       795.11065601
  Ewald energy   TEWEN  =    -12816.76308033
  -Hartree energ DENC   =     -1215.10765176
  -exchange      EXHF   =         0.00000000
  -V(xc)+E(xc)   XCENC  =      -288.80465444
  PAW double counting   =     17323.87449631   -16312.10325212
  entropy T*S    EENTRO =        -0.00000000
  eigenvalues    EBANDS =      -823.14199153
  atomic energy  EATOM  =     13036.45147835
  Solvation  Ediel_sol  =         0.00000000
  ---------------------------------------------------
  free energy    TOTEN  =      -300.48399952 eV

  energy without entropy =     -300.48399952  energy(sigma->0) =     -300.48399952


--------------------------------------------------------------------------------------------------------




--------------------------------------- Iteration      1(  15)  ---------------------------------------


    POTLOK:  cpu time      0.1308: real time      0.1314
    SETDIJ:  cpu time      0.6112: real time      0.6134
     EDDAV:  cpu time      9.9552: real time     10.0088
       DOS:  cpu time      0.0008: real time      0.0008
    CHARGE:  cpu time      0.4184: real time      0.4201
    MIXING:  cpu time      0.0081: real time      0.0081
    --------------------------------------------
      LOOP:  cpu time     11.1246: real time     11.1826

 eigenvalue-minimisations  :  8552
 total energy-change (2. order) :-0.4456470E-05  (-0.1830521E-05)
 number of electron     359.9999990 magnetization       0.0019454
 augmentation part      -66.1726699 magnetization       0.0021599

 Broyden mixing:
  rms(total) = 0.76038E-03    rms(broyden)= 0.76038E-03
  rms(prec ) = 0.80853E-03
  weight for this iteration     100.00

 eigenvalues of (default mixing * dielectric matrix)
  average eigenvalue GAMMA=   1.3034
  3.0970  2.4309  1.7004  1.1047  0.9628  0.9628  0.8172  0.7212  0.6186  0.6186

 Free energy of the ion-electron system (eV)
  ---------------------------------------------------
  alpha Z        PSCENC =       795.11065601
  Ewald energy   TEWEN  =    -12816.76308033
  -Hartree energ DENC   =     -1215.10155582
  -exchange      EXHF   =         0.00000000
  -V(xc)+E(xc)   XCENC  =      -288.80458034
  PAW double counting   =     17323.40548573   -16311.63359132
  entropy T*S    EENTRO =        -0.00000000
  eigenvalues    EBANDS =      -823.14881625
  atomic energy  EATOM  =     13036.45147835
  Solvation  Ediel_sol  =         0.00000000
  ---------------------------------------------------
  free energy    TOTEN  =      -300.48400397 eV

  energy without entropy =     -300.48400397  energy(sigma->0) =     -300.48400397


--------------------------------------------------------------------------------------------------------




--------------------------------------- Iteration      1(  16)  ---------------------------------------


    POTLOK:  cpu time      0.1304: real time      0.1311
    SETDIJ:  cpu time      0.6122: real time      0.6142
     EDDAV:  cpu time      6.7401: real time      6.7781
       DOS:  cpu time      0.0010: real time      0.0010
    --------------------------------------------
      LOOP:  cpu time      7.4836: real time      7.5244

 eigenvalue-minimisations  :  4912
 total energy-change (2. order) :-0.5867691E-06  (-0.1571989E-06)
 number of electron     359.9999990 magnetization       0.0019454
 augmentation part      -66.1726699 magnetization       0.0021599

 Free energy of the ion-electron system (eV)
  ---------------------------------------------------
  alpha Z        PSCENC =       795.11065601
  Ewald energy   TEWEN  =    -12816.76308033
  -Hartree energ DENC   =     -1215.09810745
  -exchange      EXHF   =         0.00000000
  -V(xc)+E(xc)   XCENC  =      -288.80472124
  PAW double counting   =     17323.35067567   -16311.57858858
  entropy T*S    EENTRO =        -0.00000000
  eigenvalues    EBANDS =      -823.15231698
  atomic energy  EATOM  =     13036.45147835
  Solvation  Ediel_sol  =         0.00000000
  ---------------------------------------------------
  free energy    TOTEN  =      -300.48400456 eV

  energy without entropy =     -300.48400456  energy(sigma->0) =     -300.48400456


--------------------------------------------------------------------------------------------------------




 average (electrostatic) potential at core
  the test charge radii are     1.1631  1.0808
  (the norm of the test charge is              1.0000)
       1 -33.4490       2 -33.4906       3 -33.3649       4 -33.6189       5 -33.5113
       6 -33.2188       7 -33.4593       8 -33.5034       9 -33.4000      10 -33.3652
      11 -33.1200      12 -33.5892      13 -33.4522      14 -33.7065      15 -33.2802
      16 -33.3762      17 -33.4125      18 -33.4963      19 -33.4836      20 -33.6716
      21 -33.6128      22 -33.4235      23 -33.4574      24 -33.4759      25 -33.4517
      26 -33.1655      27 -33.5453      28 -33.6515      29 -33.4771      30 -33.3363
      31 -33.3804      32 -33.3332      33 -33.6968      34 -33.8022      35 -33.3291
      36 -33.4723      37 -54.8668      38 -54.8456      39 -54.8328      40 -54.8451
      41 -54.9490      42 -54.8727      43 -54.9858      44 -54.8103      45 -54.8510
      46 -54.9523      47 -54.8705      48 -54.8706      49 -55.0453      50 -54.7282
      51 -54.9256      52 -55.0051      53 -54.6874      54 -55.0752      55 -54.8413
      56 -54.8958      57 -54.7599      58 -54.8046      59 -54.9753      60 -54.7698
      61 -54.8420      62 -55.0118      63 -54.8464      64 -55.0697      65 -54.9040
      66 -54.8542      67 -54.9275      68 -54.8529      69 -54.8153      70 -54.8573
      71 -54.7960      72 -55.0677
 
 
 
 E-fermi :   3.4352     XC(G=0):  -9.3474     alpha+bet : -8.8012

 Fermi energy:         3.4352019963

 spin component 1

 k-point     1 :       0.0000    0.0000    0.0000
  band No.  band energies     occupation 
      1     -10.9652      1.00000
      2     -10.6513      1.00000
      3     -10.4784      1.00000
      4     -10.4484      1.00000
      5     -10.3533      1.00000
      6     -10.3350      1.00000
      7     -10.1928      1.00000
      8     -10.1461      1.00000
      9     -10.0651      1.00000
     10     -10.0249      1.00000
     11      -9.9828      1.00000
     12      -9.9475      1.00000
     13      -9.9213      1.00000
     14      -9.9022      1.00000
     15      -9.7845      1.00000
     16      -9.7434      1.00000
     17      -9.7008      1.00000
     18      -9.6820      1.00000
     19      -9.6280      1.00000
     20      -9.5946      1.00000
     21      -9.4840      1.00000
     22      -9.4482      1.00000
     23      -9.4264      1.00000
     24      -9.3994      1.00000
     25      -9.3670      1.00000
     26      -9.3459      1.00000
     27      -9.2916      1.00000
     28      -9.2465      1.00000
     29      -9.2119      1.00000
     30      -9.1981      1.00000
     31      -9.1899      1.00000
     32      -9.1704      1.00000
     33      -9.1472      1.00000
     34      -9.0989      1.00000
     35      -9.0421      1.00000
     36      -9.0264      1.00000
     37      -5.4942      1.00000
     38      -5.4138      1.00000
     39      -5.3107      1.00000
     40      -5.2978      1.00000
     41      -5.2280      1.00000
     42      -5.1485      1.00000
     43      -5.1016      1.00000
     44      -5.0146      1.00000
     45      -4.8651      1.00000
     46      -4.7985      1.00000
     47      -4.6718      1.00000
     48      -4.6564      1.00000
     49      -4.5697      1.00000
     50      -4.5229      1.00000
     51      -4.5150      1.00000
     52      -4.4694      1.00000
     53      -4.4382      1.00000
     54      -4.3798      1.00000
     55      -4.3480      1.00000
     56      -4.2952      1.00000
     57      -4.2747      1.00000
     58      -4.2361      1.00000
     59      -4.2293      1.00000
     60      -4.1697      1.00000
     61      -4.1352      1.00000
     62      -4.0353      1.00000
     63      -4.0125      1.00000
     64      -3.9932      1.00000
     65      -3.9301      1.00000
     66      -3.8718      1.00000
     67      -3.7144      1.00000
     68      -3.6459      1.00000
     69      -3.4966      1.00000
     70      -3.4751      1.00000
     71      -2.4912      1.00000
     72      -2.3578      1.00000
     73      -1.8287      1.00000
     74      -1.6148      1.00000
     75      -1.5670      1.00000
     76      -1.5578      1.00000
     77      -1.4907      1.00000
     78      -1.3773      1.00000
     79      -1.2989      1.00000
     80      -1.2401      1.00000
     81      -1.1940      1.00000
     82      -1.1713      1.00000
     83      -1.0881      1.00000
     84      -1.0358      1.00000
     85      -0.9867      1.00000
     86      -0.9293      1.00000
     87      -0.8579      1.00000
     88      -0.8211      1.00000
     89      -0.7725      1.00000
     90      -0.6942      1.00000
     91      -0.6575      1.00000
     92      -0.6078      1.00000
     93      -0.5758      1.00000
     94      -0.2944      1.00000
     95      -0.2650      1.00000
     96      -0.2162      1.00000
     97      -0.1106      1.00000
     98      -0.0877      1.00000
     99      -0.0497      1.00000
    100      -0.0113      1.00000
    101       0.0319      1.00000
    102       0.0616      1.00000
    103       0.0882      1.00000
    104       0.1084      1.00000
    105       0.1465      1.00000
    106       0.2028      1.00000
    107       0.2871      1.00000
    108       0.3305      1.00000
    109       0.3701      1.00000
    110       0.4003      1.00000
    111       0.4259      1.00000
    112       0.4758      1.00000
    113       0.5049      1.00000
    114       0.5318      1.00000
    115       0.5395      1.00000
    116       0.5994      1.00000
    117       0.6086      1.00000
    118       0.6364      1.00000
    119       0.6751      1.00000
    120       0.7062      1.00000
    121       0.7660      1.00000
    122       0.7841      1.00000
    123       0.7924      1.00000
    124       0.8492      1.00000
    125       0.8961      1.00000
    126       0.9286      1.00000
    127       0.9547      1.00000
    128       0.9622      1.00000
    129       1.0520      1.00000
    130       1.0632      1.00000
    131       1.1319      1.00000
    132       1.1382      1.00000
    133       1.2157      1.00000
    134       1.2433      1.00000
    135       1.2663      1.00000
    136       1.3292      1.00000
    137       1.3951      1.00000
    138       1.4063      1.00000
    139       1.4119      1.00000
    140       1.4553      1.00000
    141       1.5083      1.00000
    142       1.5329      1.00000
    143       1.5394      1.00000
    144       1.5825      1.00000
    145       1.5945      1.00000
    146       1.6674      1.00000
    147       1.7103      1.00000
[...]
   0.610E+01 -.114E+02 -.226E+02   -.640E+01 0.138E+02 0.257E+02   0.354E+00 -.250E+01 -.268E+01   -.224E-03 0.143E-03 -.164E-03
   -.888E+00 0.450E+01 0.260E+02   0.139E+01 -.620E+01 -.292E+02   -.259E+00 0.214E+01 0.274E+01   0.472E-04 0.420E-03 0.431E-04
   -.759E+00 0.256E+02 0.200E+02   0.854E+00 -.280E+02 -.212E+02   -.329E+00 0.115E+01 0.170E+01   -.199E-03 -.244E-03 -.386E-03
   0.172E+02 0.561E+00 0.140E+02   -.184E+02 -.410E+00 -.155E+02   0.137E+01 -.589E+00 0.158E+01   -.546E-04 0.337E-03 -.276E-03
   -.104E+02 0.980E+01 0.326E+02   0.109E+02 -.113E+02 -.344E+02   -.181E+00 0.147E+01 0.210E+01   -.548E-03 -.642E-05 0.123E-03
   0.189E+02 -.555E+01 0.255E+02   -.203E+02 0.597E+01 -.263E+02   0.106E+01 -.791E+00 0.124E+01   0.304E-04 0.413E-05 -.661E-03
   -.217E+01 0.162E+02 0.268E+02   0.229E+01 -.180E+02 -.284E+02   -.320E+00 0.144E+01 0.158E+01   0.199E-03 -.170E-03 0.207E-04
   -.257E+01 0.882E+01 0.107E+02   0.222E+01 -.960E+01 -.117E+02   0.283E+00 0.169E+01 0.137E+01   -.793E-04 0.251E-03 -.264E-03
   -.966E+00 0.205E+02 0.405E+02   0.928E+00 -.223E+02 -.426E+02   -.322E+00 0.124E+01 0.171E+01   0.418E-04 0.728E-04 -.282E-03
   0.182E+02 0.754E+01 -.245E+02   -.196E+02 -.791E+01 0.264E+02   0.117E+01 0.323E+00 -.154E+01   -.499E-03 0.317E-03 -.435E-03
   0.989E+01 -.147E+02 -.303E+02   -.103E+02 0.161E+02 0.323E+02   0.303E+00 -.157E+01 -.140E+01   -.114E-03 -.549E-04 0.110E-03
   0.256E+02 0.634E+01 -.299E+02   -.273E+02 -.670E+01 0.315E+02   0.142E+01 0.329E+00 -.198E+01   -.218E-03 -.117E-03 0.214E-03
   0.344E+00 -.848E+01 -.320E+02   -.485E+00 0.949E+01 0.332E+02   -.371E+00 -.144E+01 -.656E+00   0.144E-03 0.113E-03 0.288E-03
   -.120E+02 -.134E+02 -.299E+02   0.117E+02 0.148E+02 0.318E+02   0.457E+00 -.137E+01 -.172E+01   0.617E-03 -.130E-03 0.125E-03
   0.201E+01 -.144E+02 -.140E+02   -.201E+01 0.159E+02 0.151E+02   -.715E+00 -.709E+00 -.149E+01   -.615E-04 -.247E-03 0.728E-04
   0.217E+02 0.891E+01 -.132E+02   -.234E+02 -.942E+01 0.139E+02   0.160E+01 0.205E+00 -.111E+01   -.597E-04 0.552E-03 0.268E-03
   -.583E+01 0.920E+01 0.168E+02   0.603E+01 -.104E+02 -.184E+02   -.559E-03 0.123E+01 0.184E+01   0.803E-04 -.292E-03 0.293E-04
   0.313E+02 -.103E+02 0.281E+02   -.333E+02 0.105E+02 -.295E+02   0.108E+01 -.637E+00 0.171E+01   0.635E-03 0.376E-03 -.276E-03
   0.706E+01 -.195E+02 0.293E+02   -.717E+01 0.208E+02 -.310E+02   0.132E+00 -.175E+01 0.136E+01   -.367E-03 -.821E-04 -.936E-04
   -.116E+02 -.235E+02 0.299E+02   0.119E+02 0.253E+02 -.316E+02   -.366E+00 -.135E+01 0.185E+01   0.248E-03 -.242E-04 -.154E-03
   0.206E+02 0.269E+02 0.248E+02   -.217E+02 -.281E+02 -.269E+02   0.952E+00 0.520E+00 0.183E+01   -.442E-03 -.235E-03 0.384E-03
   0.250E+01 -.932E+01 -.345E+02   -.285E+01 0.107E+02 0.360E+02   -.346E-02 -.141E+01 -.137E+01   0.456E-03 -.865E-03 0.356E-03
   -.961E+01 0.256E+02 -.133E+02   0.966E+01 -.273E+02 0.146E+02   0.650E-02 0.133E+01 -.176E+01   0.525E-04 0.120E-03 0.159E-03
   0.123E+02 -.102E+01 -.258E+02   -.134E+02 0.120E+01 0.276E+02   0.131E+01 -.311E+00 -.235E+01   0.168E-03 0.519E-03 -.216E-03
   0.984E+01 0.256E+01 -.235E+02   -.104E+02 -.379E+01 0.256E+02   0.997E-01 0.669E+00 -.150E+01   0.313E-03 -.585E-03 -.512E-03
   0.283E+02 0.700E+01 -.185E+02   -.299E+02 -.765E+01 0.200E+02   0.852E+00 -.397E+00 -.178E+01   0.346E-04 0.148E-03 0.274E-03
   -.129E+02 0.158E+02 -.202E+02   0.133E+02 -.172E+02 0.214E+02   0.252E+00 0.883E+00 -.118E+01   -.536E-03 0.174E-03 -.360E-04
   -.124E+02 0.127E+02 -.222E+02   0.127E+02 -.144E+02 0.237E+02   0.247E+00 0.114E+01 -.158E+01   -.356E-03 -.217E-03 0.331E-04
   0.369E+01 0.117E+02 -.315E+02   -.386E+01 -.129E+02 0.330E+02   -.827E-02 0.121E+01 -.125E+01   -.139E-03 0.146E-03 0.207E-03
   0.298E+01 0.150E+02 -.224E+02   -.296E+01 -.165E+02 0.244E+02   -.122E+00 0.121E+01 -.199E+01   0.283E-03 -.163E-03 -.579E-04
   0.100E+02 0.108E+01 -.157E+02   -.113E+02 -.101E+01 0.164E+02   0.121E+01 -.423E+00 -.446E+00   -.298E-04 -.825E-04 0.128E-03
   0.104E+02 0.754E+01 0.171E+02   -.119E+02 -.790E+01 -.185E+02   0.152E+01 0.569E+00 0.137E+01   -.187E-03 0.374E-04 -.147E-03
   -.831E+01 -.543E+01 0.216E+02   0.820E+01 0.606E+01 -.229E+02   0.239E+00 -.928E+00 0.122E+01   0.795E-04 -.159E-03 -.135E-03
   -.888E+00 -.196E+02 0.135E+02   0.495E+00 0.207E+02 -.150E+02   0.820E-01 -.753E+00 0.217E+01   0.527E-03 -.550E-03 0.165E-03
   -.588E+00 -.695E+01 0.290E+02   0.129E+01 0.796E+01 -.302E+02   -.397E+00 -.103E+01 0.809E+00   -.279E-04 -.436E-04 -.301E-03
   0.177E+02 0.712E+01 0.211E+02   -.193E+02 -.756E+01 -.220E+02   0.135E+01 0.354E+00 0.156E+01   0.374E-03 0.611E-03 0.331E-03
   -.273E+01 -.132E+02 0.276E+02   0.311E+01 0.146E+02 -.294E+02   -.498E+00 -.121E+01 0.127E+01   0.244E-03 0.862E-04 -.195E-03
   0.396E+01 -.181E+02 -.359E+02   -.427E+01 0.197E+02 0.377E+02   -.112E+00 -.122E+01 -.141E+01   0.125E-03 0.621E-03 -.149E-04
 -----------------------------------------------------------------------------------------------
   0.138E+02 0.528E+01 -.183E+01   0.178E-14 0.213E-13 -.256E-12   -.138E+02 -.528E+01 0.184E+01   -.346E-03 0.248E-03 -.860E-03
 
 
 POSITION                                       TOTAL-FORCE (eV/Angst)
 -----------------------------------------------------------------------------------
      1.14338      0.60415      1.45235        -0.602224     -0.073994     -0.482707
      2.63247     10.91057      4.20556         0.204449      0.018651     -0.163995
      6.93361      2.52615      3.85533         0.714105     -0.758775      0.045081
      7.08703      6.85263      4.34082        -0.057113      0.305183     -0.282503
      6.73607     10.77330      4.19533        -0.014745      0.040757     -0.667779
     10.78795      2.47911      3.99740         0.508549     -0.271880      0.491972
     11.19039      6.78438      4.19430         0.522032     -0.239184      0.165957
     11.28386     10.91186      4.12996         0.144356      0.418345     -0.101908
      0.94131      1.84597      6.89741         0.290961      0.820441      0.201342
      0.62703      6.29658      7.11880         0.566832      0.079319      0.274779
      0.79113      9.91266      7.10218         0.840679      1.165639     -1.049396
      4.81819      2.08803      6.85453        -0.185410      0.001098      0.373478
      5.16080      5.82712      6.91081        -0.032034      0.493074      0.166640
      5.00763     10.35867      6.90019        -0.182945     -0.620128      0.258326
      9.36645      1.68762      6.84919        -0.284626      0.677825     -0.252123
      9.14256      5.94467      7.14391         0.109214      0.828553     -0.341504
      2.58620      6.50954      4.25204         0.378301      0.405526     -0.014007
      3.11813      2.81394      4.17990         0.110141     -0.523412      0.056661
      8.58272     10.36082      6.62821         0.241126      0.076306     -0.008095
     10.91275      8.38217      9.79930        -0.027810      0.212993     -0.341322
     11.12861     12.26834      9.65988         0.194299      0.224451     -0.269486
      0.77184      4.25574      1.45202         0.001812      0.709880      0.318007
      0.77211      8.77095      1.15919        -0.190936      0.370134      0.053425
      4.71195      0.36885      1.38153         0.514234     -0.238501     -0.075074
      5.19810      5.00499      1.42170         0.016673     -0.363418      0.026699
      8.76280      0.24839      1.40595         0.689227     -0.213847     -0.566965
      9.25700      4.59759      1.29896        -0.160181      0.389250      0.057738
      4.59432      8.75049      1.18272         0.032918     -0.033253      0.624736
      2.78400      4.16309      9.71514        -0.106159      0.210526     -0.123792
      3.03650      8.03904      9.59885        -0.243377      0.321440     -0.023780
      2.78876     12.14147      9.60557         0.218867      1.230003      0.075468
      7.21548      3.79393      9.67517         0.618174      0.398468      0.105144
      7.14288      8.20863      9.82813        -0.458100     -0.034821     -0.567066
      6.91062     12.41078      9.86392        -0.167870      0.313396     -0.811770
     11.23193      3.99636      9.61789         0.056719     -0.094494      0.406793
      9.21254      8.76922      1.49577         0.242896      0.443027     -0.490212
     11.45123      0.30501      7.02037        -0.234801     -1.185087      0.486261
      3.13388      4.30505      7.12962         0.095726     -0.437140      0.124706
      2.98590      8.51679      7.05451         0.338043     -0.055986      0.271316
      7.33469      0.13968      7.14175        -0.334987     -0.372255      0.409698
      7.27409      4.28614      7.15868        -0.202068     -0.409915      0.025489
      6.96315      8.37272      7.11688        -0.067691      0.908572      0.462691
     11.29222      4.52075      7.18324        -0.359880     -0.642282     -0.384782
      9.43501      0.26835      3.83337        -0.286537     -0.046486      0.404988
      0.89533      0.25299      3.89832        -0.075503     -0.213162      0.555265
      1.16698      4.40258      4.05384        -0.360591     -0.027460     -0.350463
      0.94237      8.47477      3.68489        -0.511442     -0.430425      0.547773
      4.84734     12.51331      3.89192         0.175312      0.069699      0.137764
      5.27187      4.29903      4.05877        -0.713979      0.812159     -0.429473
      5.26540      8.74022      3.91878        -0.105895     -0.309431     -0.330738
      2.92968      0.20714      7.04792         0.196509      0.014666      0.263757
     11.44660      8.29005      7.19599        -0.954938     -0.463687      0.394623
     11.29540     10.59729      1.60965         0.018665     -0.473954     -0.328457
      3.08453      2.26335      1.59336        -0.015006      0.471952      0.181296
     11.45025      2.49966      1.54968        -0.098672     -0.721377     -0.213407
      9.01399      4.25011      3.79382        -0.352414     -0.066720      0.132556
      0.86929      2.42819      9.57344         0.060226     -0.309300     -0.431319
      1.05740      6.34359      9.73544         0.219528     -0.130820     -0.566615
      0.88672     10.61167      9.46538        -0.466370     -0.560454      0.548370
      5.34353      2.28585      9.42833        -0.742309     -1.052074     -0.277695
      5.02422      6.51635      9.50605         0.712126     -0.487274      0.012397
      4.90827     10.77488      9.45081         0.636323     -0.612145     -0.120687
      9.38747      2.17988      9.34780        -0.169590      0.020724      0.262876
      9.12937      6.57453      9.65770        -0.094950     -0.336314      0.021177
      9.30631     10.54496      9.16758        -0.019472     -0.350728      0.286354
      3.21435      6.55782      1.72509        -0.053258      0.211594     -0.074436
      2.74745     10.59051      1.57556         0.129254     -0.301970     -0.006138
      6.94890      1.99482      1.28593        -0.310536      0.366975      0.660661
      7.20444      6.52050      1.77582         0.303661     -0.022030     -0.307187
      7.37750     10.62323      1.50975        -0.326437     -0.080201      0.665746
     11.33723      6.17912      1.75990        -0.111496      0.127626     -0.535111
      9.32707      8.41234      3.94629        -0.419588      0.406131      0.431982
 -----------------------------------------------------------------------------------
    total drift:                               -0.001755     -0.001478      0.000221


--------------------------------------------------------------------------------------------------------



  FREE ENERGIE OF THE ION-ELECTRON SYSTEM (eV)
  ---------------------------------------------------
  free  energy   TOTEN  =      -300.48400456 eV

  energy  without entropy=     -300.48400456  energy(sigma->0) =     -300.48400456
 


--------------------------------------------------------------------------------------------------------


    POTLOK:  cpu time      0.7308: real time      0.7341


--------------------------------------------------------------------------------------------------------


     LOOP+:  cpu time    183.5563: real time    184.6027
    4ORBIT:  cpu time      0.0000: real time      0.0000



 total charge

# of ion       s       p       d       tot
------------------------------------------
    1        1.322   0.782   0.060   2.164
    2        1.331   0.740   0.054   2.125
    3        1.323   0.794   0.059   2.176
    4        1.327   0.735   0.054   2.116
    5        1.293   0.805   0.057   2.154
    6        1.305   0.831   0.062   2.198
    7        1.307   0.807   0.059   2.173
    8        1.332   0.736   0.053   2.120
    9        1.321   0.784   0.059   2.164
   10        1.308   0.814   0.063   2.185
   11        1.290   0.896   0.071   2.257
   12        1.329   0.726   0.047   2.103
   13        1.322   0.769   0.056   2.148
   14        1.323   0.729   0.049   2.102
   15        1.301   0.833   0.064   2.199
   16        1.308   0.824   0.061   2.194
   17        1.322   0.778   0.056   2.156
   18        1.314   0.794   0.059   2.167
   19        1.323   0.760   0.052   2.134
   20        1.323   0.749   0.053   2.125
   21        1.340   0.717   0.050   2.108
   22        1.316   0.790   0.062   2.168
   23        1.329   0.744   0.055   2.127
   24        1.314   0.796   0.060   2.170
   25        1.321   0.778   0.055   2.154
   26        1.301   0.847   0.064   2.212
   27        1.328   0.738   0.054   2.120
   28        1.331   0.719   0.047   2.097
   29        1.334   0.734   0.052   2.119
   30        1.288   0.836   0.062   2.186
   31        1.302   0.837   0.065   2.204
   32        1.307   0.821   0.064   2.192
   33        1.333   0.721   0.049   2.102
   34        1.338   0.692   0.046   2.077
   35        1.302   0.824   0.064   2.190
   36        1.303   0.802   0.059   2.163
   37        1.474   2.332   0.034   3.840
   38        1.478   2.295   0.031   3.803
   39        1.479   2.280   0.030   3.789
   40        1.479   2.280   0.028   3.787
   41        1.476   2.321   0.035   3.832
   42        1.481   2.271   0.029   3.780
   43        1.476   2.332   0.038   3.847
   44        1.473   2.315   0.033   3.821
   45        1.475   2.312   0.033   3.820
   46        1.479   2.310   0.035   3.824
   47        1.476   2.299   0.031   3.806
   48        1.477   2.297   0.031   3.805
   49        1.476   2.320   0.036   3.832
   50        1.476   2.291   0.027   3.794
   51        1.475   2.294   0.030   3.800
   52        1.478   2.333   0.039   3.850
   53        1.474   2.296   0.028   3.798
   54        1.477   2.315   0.037   3.829
   55        1.476   2.317   0.035   3.829
   56        1.476   2.317   0.034   3.828
   57        1.475   2.297   0.029   3.802
   58        1.481   2.270   0.029   3.780
   59        1.474   2.342   0.038   3.853
   60        1.476   2.310   0.032   3.818
   61        1.472   2.303   0.030   3.805
   62        1.476   2.313   0.033   3.822
   63        1.476   2.305   0.032   3.812
   64        1.477   2.311   0.035   3.823
   65        1.474   2.297   0.029   3.800
   66        1.475   2.312   0.032   3.819
   67        1.476   2.295   0.032   3.802
   68        1.481   2.294   0.032   3.808
   69        1.474   2.305   0.031   3.810
   70        1.478   2.288   0.029   3.795
   71        1.473   2.310   0.031   3.814
   72        1.475   2.324   0.036   3.835
--------------------------------------------------
tot        100.558 111.088   3.216 214.862



 magnetization (x)

# of ion       s       p       d       tot
------------------------------------------
    1       -0.000   0.000  -0.000  -0.000
    2       -0.000   0.000   0.000   0.000
    3       -0.000   0.000   0.000   0.000
    4       -0.000   0.000   0.000   0.000
    5       -0.000   0.000   0.000   0.000
    6       -0.000   0.000  -0.000  -0.000
    7       -0.000   0.000  -0.000  -0.000
    8       -0.000   0.000   0.000   0.000
    9       -0.000   0.000  -0.000  -0.000
   10       -0.000   0.000  -0.000   0.000
   11       -0.000   0.000  -0.000   0.000
   12       -0.000   0.000   0.000   0.000
   13       -0.000   0.000   0.000   0.000
   14       -0.000   0.000   0.000   0.000
   15       -0.000   0.000  -0.000   0.000
   16       -0.000   0.000   0.000   0.000
   17       -0.000   0.000   0.000   0.000
   18       -0.000   0.000  -0.000   0.000
   19       -0.000   0.000   0.000   0.000
   20       -0.000   0.000   0.000   0.000
   21       -0.000   0.000  -0.000  -0.000
   22       -0.000   0.000  -0.000  -0.000
   23       -0.000   0.000   0.000   0.000
   24       -0.000   0.000   0.000   0.000
   25       -0.000   0.000   0.000   0.000
   26       -0.000   0.000   0.000   0.000
   27       -0.000   0.000   0.000   0.000
   28       -0.000   0.000   0.000   0.000
   29       -0.000   0.000  -0.000   0.000
   30       -0.000   0.000   0.000   0.000
   31       -0.000   0.000  -0.000   0.000
   32       -0.000   0.000   0.000   0.000
   33       -0.000   0.000   0.000   0.000
   34       -0.000   0.000   0.000   0.000
   35       -0.000   0.000  -0.000   0.000
   36       -0.000   0.000   0.000   0.000
   37       -0.000  -0.000  -0.000  -0.000
   38       -0.000  -0.000   0.000  -0.000
   39       -0.000  -0.000   0.000  -0.000
   40       -0.000  -0.000   0.000  -0.000
   41       -0.000  -0.000   0.000  -0.000
   42       -0.000  -0.000   0.000  -0.000
   43        0.000  -0.000  -0.000  -0.000
   44       -0.000  -0.000   0.000  -0.000
   45       -0.000  -0.000   0.000  -0.000
   46        0.000  -0.000  -0.000  -0.000
   47       -0.000  -0.000   0.000  -0.000
   48       -0.000  -0.000   0.000  -0.000
   49       -0.000  -0.000   0.000  -0.000
   50       -0.000  -0.000   0.000  -0.000
   51       -0.000  -0.000   0.000  -0.000
   52       -0.000  -0.000   0.000  -0.000
   53       -0.000  -0.000   0.000  -0.000
   54       -0.000  -0.000   0.000  -0.000
   55       -0.000  -0.000  -0.000  -0.000
   56       -0.000  -0.000   0.000  -0.000
   57       -0.000  -0.000  -0.000  -0.000
   58       -0.000  -0.000   0.000  -0.000
   59       -0.000  -0.000  -0.000  -0.000
   60       -0.000  -0.000   0.000  -0.000
   61       -0.000  -0.000   0.000  -0.000
   62       -0.000  -0.000   0.000  -0.000
   63       -0.000  -0.000   0.000  -0.000
   64       -0.000  -0.000   0.000  -0.000
   65       -0.000  -0.000   0.000  -0.000
   66       -0.000  -0.000   0.000  -0.000
   67       -0.000  -0.000   0.000  -0.000
   68       -0.000  -0.000   0.000  -0.000
   69       -0.000  -0.000   0.000  -0.000
   70       -0.000  -0.000   0.000  -0.000
   71       -0.000  -0.000  -0.000  -0.000
   72       -0.000  -0.000   0.000  -0.000
--------------------------------------------------
tot         -0.000  -0.000   0.000  -0.000
 

 total amount of memory used by VASP MPI-rank0   110925. kBytes
=======================================================================

   base      :      30000. kBytes
   nonl-proj :      16400. kBytes
   fftplans  :       6180. kBytes
   grid      :      15593. kBytes
   one-center:        146. kBytes
   wavefun   :      42606. kBytes
 
  
  
 General timing and accounting informations for this job:
 ========================================================
  
                  Total CPU time used (sec):      195.150
                            User time (sec):      189.431
                          System time (sec):        5.718
                         Elapsed time (sec):      198.066
  
                   Maximum memory used (kb):      315392.
                   Average memory used (kb):          N/A
  
                          Minor page faults:        89907
                          Major page faults:           49
                 Voluntary context switches:        10105
