72
Lattice="12.452789136764332 -2.5106704295e-06 1.8459179481e-06 -2.5229408399e-06 12.513652788146514 -7.21136607e-07 2.1152123869e-06 -8.223217387e-07 11.085076451796462" Properties=species:S:1:pos:R:3:forces:R:3:magmoms:R:1 energy=-300.58762523 stress="0.0040869965739048185 0.0009339067369818907 0.0007306953458198908 0.0009339067369818907 -0.0066503068211541845 0.0020214957064988276 0.0007306953458198908 0.0020214957064988276 -0.006455123858214772" dipole="_JSON [[0.0, 0.0, 0.0]]" magmom=0.001901 free_energy=-300.58762523 pbc="T T T"
Ge       0.89091404       0.58670532       1.27833392       0.01830798       0.33929236       0.43171525       0.00000000
Ge       2.97253957      11.03247112       4.30394625      -0.04850034       0.67063103      -0.44232162       0.00000000
Ge       7.30326675       2.67120953       4.09625402      -0.46346137      -0.63004675      -0.05216380      -0.00000000
Ge       7.05706435       6.98726440       4.05172489       0.17155558      -0.37814508       0.50746654       0.00000000
Ge       7.42844377      10.72305368       4.09123705      -0.39988787       0.62030179      -0.00128260      -0.00000000
Ge      11.26744836       2.75296396       4.20606200       0.36915723      -0.39134770      -0.56871466       0.00000000
Ge      11.72678866       6.57229810       4.04594533      -0.83846975      -0.31321238      -0.31606096       0.00000000
Ge      11.27694181      10.99563659       3.94312407       0.02429604       0.27147929       0.18252708       0.00000000
Ge       0.61267719       1.70719832       6.92636348       0.15248702       0.27208910      -0.22385010       0.00000000
Ge       0.93161467       5.96798326       7.14549824      -0.22934926       0.29129277       0.05170137       0.00000000
Ge       0.93767163      10.12765191       6.95681151      -0.82239343       0.39752582      -0.62649203       0.00000000
Ge       4.89271378       2.01435120       7.13863595       0.14868373      -0.30016618      -0.09232442      -0.00000000
Ge       5.05621928       5.96394300       7.14290919       0.32434918       0.41641244      -0.41963782       0.00000000
Ge       4.89851476      10.24353705       6.80545088       0.08685970       0.21799487       0.36692438       0.00000000
Ge       9.05121877       2.00271953       7.01339683      -0.10301309      -0.30390719      -0.60461582      -0.00000000
Ge       9.29407247       5.95576523       7.01410110      -0.21776696       0.20872273      -0.27586590       0.00000000
Ge       3.04506234       6.70728463       3.97573395      -0.29462969      -0.29870832       0.36582145       0.00000000
Ge       3.23659932       2.42692469       4.03634988       0.30419628       0.05968523      -0.07548086       0.00000000
Ge       8.96670452      10.32021667       7.05721958       0.38994968       0.02181094      -0.78451662       0.00000000
Ge      11.10627641       8.12937041       9.58149859       0.14145211       0.31701567      -0.25202715       0.00000000
Ge      11.16870943      12.21539916       9.73690708      -0.10105889       0.28563358      -0.52945498       0.00000000
Ge       1.36593114       4.53265615       1.15100630       0.04350727      -0.35251551       0.39859309       0.00000000
Ge       1.02720241       8.84687465       1.06940056       0.01128706       0.33473981       0.53972595       0.00000000
Ge       5.30464343       0.17100340       1.35363140       0.11143444       0.43994397       0.13660069      -0.00000000
Ge       5.27542246       4.79806592       1.46297466       0.17679547      -0.68413717       0.32187029       0.00000000
Ge       9.17837764       0.47024627       1.30000252      -0.13353814       0.43537628       0.45999595      -0.00000000
Ge       9.15776435       4.76106086       1.59126233      -0.22693624       0.10472089      -0.42536142      -0.00000000
Ge       4.98292071       8.95216944       1.42625628       0.17309413       0.13710989      -0.26403497       0.00000000
Ge       2.88500179       4.03922334       9.67925908       0.11041972      -0.17691648      -0.63652611       0.00000000
Ge       2.88748224       8.22604009       9.60181495       0.50153685       0.02883263      -0.25771698       0.00000000
Ge       2.70952876      12.29455529       9.63307110       0.40796340      -0.09526723       0.36648974       0.00000000
Ge       7.14340387       3.85655659       9.81647310      -0.23063557       0.84055906      -0.18197219      -0.00000000
Ge       6.98914062       8.54579100       9.64748866      -0.15237122      -0.40686541      -0.04182711      -0.00000000
Ge       7.10971222      12.76248357       9.69804507      -0.19594371      -0.50316127      -0.32968217      -0.00000000
Ge      11.35647514       4.01957990       9.82105263       0.06371809      -0.07680924      -0.35435255       0.00000000
Ge       9.45965758       8.82410914       1.37341770      -0.14334018      -0.29562287      -0.14607584       0.00000000
Se      10.99403938       0.18822264       7.05960620       0.19437309      -0.14683554       0.49607298      -0.00000000
Se       3.00826014       4.41396958       7.03664834      -0.38046026      -0.41391125       0.65898242      -0.00000000
Se       2.79298816       8.49118653       6.98087389       0.45401385      -0.52746819       0.43823635      -0.00000000
Se       6.83439224       0.16271476       7.18705325       0.31447984       0.59093396      -0.06832556      -0.00000000
Se       7.06958259       4.24263392       7.18774866      -0.10136069       0.27666954       0.32165706      -0.00000000
Se       6.97212864       8.66814560       7.12186759      -0.18949455      -0.28874119      -0.10694120      -0.00000000
Se      11.25924969       4.20302715       7.17428633       0.00902590       0.44918761       0.30706516      -0.00000000
Se       9.12261772       0.20299059       3.88422929       0.49645537      -0.46612517      -0.28171434      -0.00000000
Se       0.75391961       0.28646709       3.86752005       0.40931673      -0.43555079      -0.09458764      -0.00000000
Se       0.73972014       4.49949414       3.68875456       0.04415867      -0.21625198       0.06952767      -0.00000000
Se       0.90955303       8.33518196       3.64056577       0.74038754       0.58643364      -0.10664362      -0.00000000
Se       4.95952424       0.44728549       3.87639383      -0.56252655      -0.62042502       0.26358550      -0.00000000
Se       5.23299718       4.26823372       4.12489281      -0.33381295       0.21231763      -0.57075081      -0.00000000
Se       4.92165067       8.40862126       3.90145601       0.10792503       0.74025845       0.24405317      -0.00000000
Se       2.73051906       0.12217539       7.18777580       0.25050741       0.37411659      -0.55046878      -0.00000000
Se      11.07589115       8.51281616       7.02359405       0.17455465       0.15671473       0.25983688      -0.00000000
Se      11.37472228      10.56586668       1.41086386       0.18568801      -0.01125317      -0.00129235      -0.00000000
Se       2.97824489       2.37073722       1.49448931      -0.60490409       0.07097330      -0.07183576      -0.00000000
Se      11.15635585       2.14768246       1.53494331       0.18137960       0.29408695       0.23038604      -0.00000000
Se       9.23100345       4.28028828       4.07258032      -0.01371176       0.85319631      -0.01994016      -0.00000000
Se       0.80304179       2.27626817       9.44323447       0.10299369       0.09094681       0.31411571      -0.00000000
Se       0.84303225       6.55844810       9.71144384      -0.28287764      -0.58978364      -0.64213453      -0.00000000
Se       0.74309906      10.60927296       9.40701599      -0.03115837      -0.29956176       0.47135050      -0.00000000
Se       5.06871863       2.32540309       9.65180166      -0.68713940      -0.09773230      -0.08390324      -0.00000000
Se       4.94331303       6.51612029       9.59022798      -0.04319311       0.18328637       0.16613932      -0.00000000
Se       4.85092351      10.65433448       9.37466023      -0.06534720       0.04444709       0.12559747      -0.00000000
Se       9.15595787       2.38626187       9.45362376       0.23544604      -0.67256023       0.62608480      -0.00000000
Se       9.04812743       6.68081678       9.43737388      -0.23817395      -0.54693991       0.26719030      -0.00000000
Se       8.94040186      10.84206073       9.45489186       0.20210849      -0.38319603       0.78779680      -0.00000000
Se       3.23580370       6.31027586       1.50350799      -0.54679507       0.34749420      -0.19136865      -0.00000000
Se       2.96998700      10.59490814       1.71718249      -0.23849903       0.04546132      -0.02442116      -0.00000000
Se       7.09877518       2.27639152       1.51300010       0.27999465      -0.49786635       0.00810285      -0.00000000
Se       7.08105491       6.56879580       1.60907380       0.32416400      -0.09572744      -0.36656661      -0.00000000
Se       7.03048176      10.69296663       1.53581760      -0.48004218      -0.04615370       0.11681576      -0.00000000
Se      10.91522072       6.61371472       1.43274824       0.39940399       0.07246148       0.72654328      -0.00000000
Se       8.98092782       8.79832019       3.89887766       0.56336500      -0.53724366       0.05468131      -0.00000000
