72
Lattice="12.455126176959366 -2.5111416121e-06 1.8462643753e-06 -2.5222514542e-06 12.510233471390297 -7.209395587e-07 2.1147340767e-06 -8.221357881e-07 11.082569797844277" Properties=species:S:1:pos:R:3:forces:R:3:magmoms:R:1 energy=-300.70370096 stress="0.005347512938818187 0.00139159902912996 -0.0010609219220483086 0.00139159902912996 -0.004701511925844225 -0.00030414026373489823 -0.0010609219220483086 -0.00030414026373489823 -0.008928022150802316" dipole="_JSON [[0.0, 0.0, 0.0]]" magmom=0.001882 free_energy=-300.70370096 pbc="T T T"
Ge       0.90387586       0.66862876       1.39041917       0.03724407      -0.03552678      -0.48045864      -0.00000000
Ge       2.75024497      11.23423207       4.39984883       0.52530554      -0.47664053      -0.26144303       0.00000000
Ge       7.13923282       2.52751999       4.12729596       0.28821068       0.33866375      -0.15495520       0.00000000
Ge       7.17301043       6.67604971       4.06377639      -0.11063616       0.83042040      -0.17107563       0.00000000
Ge       7.34384538      10.84535035       4.12369050       0.12966890      -0.50927182      -0.10169861       0.00000000
Ge      11.24529616       2.78240453       4.09461626      -0.22616256      -0.01385077      -0.42013550       0.00000000
Ge      11.60907558       6.46685829       3.96790363       0.16883777       0.49200724       0.05465862       0.00000000
Ge      11.34052259      10.95015801       3.74728181       0.05212138      -0.34742157       0.39203696       0.00000000
Ge       0.61212266       1.88266484       6.92651041       0.35536495      -0.04889774       0.22815369       0.00000000
Ge       0.76836319       6.19026274       7.11384998       0.26450434      -0.45760445      -0.59239422      -0.00000000
Ge       0.66937039      10.00538104       6.82127016       0.80170325       0.41577615       0.29103001       0.00000000
Ge       4.90206638       1.91474256       7.12243728      -0.47642108       0.29536580      -0.09552031       0.00000000
Ge       5.05506496       6.00042019       6.94520487      -0.31118869       0.13762542       0.30083178       0.00000000
Ge       5.06189429      10.31445337       6.91676435      -0.34235405      -0.16121864      -0.21474848       0.00000000
Ge       9.09455597       1.99724991       6.87578446       0.18049438       0.29411235       0.59071113       0.00000000
Ge       9.16284730       5.96231430       7.06264418       0.26193696       0.50401891      -0.02168415       0.00000000
Ge       3.18929764       6.46737715       4.06943726      -0.05654755       0.81052334      -0.37322232       0.00000000
Ge       3.13388983       2.33593247       3.93916246      -0.04037957       0.22560120       0.13019859       0.00000000
Ge       9.20584261      10.29651598       6.96881809      -0.40361943       0.11407616       0.48505099       0.00000000
Ge      11.21720298       8.16479625       9.49370368      -0.17338572       0.02322297       0.16424518      -0.00000000
Ge      11.13018129      12.35429921       9.61615728       0.06078418      -0.03091980       0.86546439       0.00000000
Ge       1.28195205       4.58663603       1.32050805      -0.11959326      -0.03981296      -0.14897653      -0.00000000
Ge       1.17735178       9.01431679       1.26718976      -0.14060276      -0.59346085      -0.00436178      -0.00000000
Ge       5.12892299       0.28674520       1.44289106       0.20447497       0.17424658      -0.06224471       0.00000000
Ge       5.30581554       4.56151081       1.60552845      -0.31718100       0.43352189      -0.74138010       0.00000000
Ge       9.14352019       0.57698199       1.52629618       0.34877067      -0.21467382      -0.60976153       0.00000000
Ge       9.09314775       4.81702815       1.37423682       0.23326456       0.10140863       0.16331370       0.00000000
Ge       5.20042310       8.96332812       1.51007551      -0.69677623      -0.16359504       0.30040507      -0.00000000
Ge       3.07308685       4.11182655       9.53760823      -0.59611362       0.20531378       0.85975812      -0.00000000
Ge       3.10064189       8.39809218       9.66242191      -0.40302641      -0.17364599       0.17561872      -0.00000000
Ge       2.71928971      12.25365719       9.71220915      -0.16921509       0.07839417      -0.47351959       0.00000000
Ge       7.08028108       4.04261471       9.79103591       0.17163034      -0.23345295      -0.45887945      -0.00000000
Ge       6.92282945       8.39147532       9.64407453       0.36577604      -0.32377563      -0.12875118      -0.00000000
Ge       7.01250988      12.44701476       9.45950495       0.22081349      -0.02427719       0.21834382       0.00000000
Ge      11.19613444       3.73132707       9.67330751       0.09724620       0.45585263       0.31966140      -0.00000000
Ge       9.30902619       8.67232315       1.24323708       0.41653113      -0.06316984       0.51124373      -0.00000000
Se      10.98883726       0.22391943       7.21180315       0.41036513      -0.15617399      -0.98971594      -0.00000000
Se       2.84726251       4.28571434       7.16589967       0.16829234       0.61182565      -1.13411820      -0.00000000
Se       2.99790040       8.48893281       7.17942728      -0.35846417       0.19740124      -0.60424810      -0.00000000
Se       7.04435948       0.46447521       6.98581933      -0.28483789      -0.93057306      -0.00064574      -0.00000000
Se       7.19988544       4.40265605       7.15969662      -0.73790835      -0.51359423       0.44662031      -0.00000000
Se       7.07609283       8.65295564       7.11079974      -0.04883102      -0.12437026      -0.01492742      -0.00000000
Se      11.19725342       4.29400455       7.17662227      -0.06183078       0.13539248      -0.18199516      -0.00000000
Se       9.28740092       0.06997042       3.96211985       0.07103876       0.13672379       0.35938134      -0.00000000
Se       0.83823838       0.28417035       3.87460934      -0.41695916       0.32272135       0.29786077      -0.00000000
Se       0.75188598       4.39407979       3.84907561       0.06860733       0.18471515       0.09337968      -0.00000000
Se       1.24337229       8.20285764       3.74823683      -0.72111071       0.14208074       0.31785156      -0.00000000
Se       4.86521964       0.41100655       3.96140963      -0.11788625      -0.24963840       0.12979650      -0.00000000
Se       5.08372533       4.18069518       4.03472445       0.23441921       0.06800558       0.50037173      -0.00000000
Se       4.93669388       8.49672348       4.03025712       0.40694383      -0.44641534      -0.20839870      -0.00000000
Se       2.74068265       0.18269048       7.06678133       0.20855227       0.28669322       0.33895118      -0.00000000
Se      11.07842010       8.49792510       6.93014632      -0.03636984      -0.25906495       0.08636735      -0.00000000
Se      11.41443580      10.49190396       1.29888822      -0.22744742       0.09660719       0.26671427      -0.00000000
Se       2.89552786       2.51167253       1.41965326      -0.15637743      -0.39936648       0.12550304      -0.00000000
Se      11.22075326       2.19147711       1.48063400      -0.11551076       0.32079926       0.54402444      -0.00000000
Se       9.14991406       4.54521026       3.98268812      -0.09590143      -0.60032234      -0.17223756      -0.00000000
Se       0.92779748       2.31632727       9.46433590      -0.23250525      -0.23527120      -0.06429784      -0.00000000
Se       0.76848677       6.57324039       9.48465690       0.12698796      -0.00838958       0.71272043      -0.00000000
Se       0.71594057      10.59465687       9.46139629      -0.01267421      -0.06500918      -0.54084718      -0.00000000
Se       4.87599754       2.36767967       9.65728301       0.66521875      -0.34756671      -0.26865414      -0.00000000
Se       4.95735176       6.60447041       9.54921733       0.26063824      -0.42508768      -0.41755546      -0.00000000
Se       4.80107256      10.61582363       9.42792841       0.39331481       0.23424992       0.27803178      -0.00000000
Se       9.05840283       2.15328250       9.57920493      -0.27086508       0.29918404      -0.45688314      -0.00000000
Se       9.02675002       6.55901028       9.56892309       0.01426512       0.01414267      -0.11499852      -0.00000000
Se       8.99911507      10.72754789       9.63630116       0.12374461      -0.11446676      -0.74882723      -0.00000000
Se       3.18212922       6.31298950       1.49326946       0.30255899      -0.32025521       0.34706314      -0.00000000
Se       2.99509415      10.66953175       1.72666698       0.32232621       0.34548003       0.04950010      -0.00000000
Se       7.18762301       2.24883732       1.59128813      -0.27620239      -0.16700070       0.09517996      -0.00000000
Se       7.15483748       6.59353988       1.48263132      -0.42767373      -0.45194096       0.36899333      -0.00000000
Se       6.91037059      10.82356660       1.58923960       0.18418900       0.13419473       0.06168007      -0.00000000
Se      10.97755946       6.59556332       1.48889138       0.16117952       0.05092338      -0.11562917      -0.00000000
Se       8.96943665       8.66829440       3.84035946      -0.12476685       0.21443164       0.07847360      -0.00000000
72
Lattice="12.45921108066256 -2.5119651904e-06 1.846869894e-06 -2.5216366388e-06 12.507184019483585 -7.207638249e-07 2.1135799838e-06 -8.216871166e-07 11.076521607107885" Properties=species:S:1:pos:R:3:forces:R:3:magmoms:R:1 energy=-300.45306468 stress="0.004705415484240226 0.00011342710762391372 0.00027717965312604317 0.00011342710762391372 -0.004972621318130272 -0.0019414602045852048 0.00027717965312604317 -0.0019414602045852048 -0.010374079938640432" dipole="_JSON [[0.0, 0.0, 0.0]]" magmom=0.0017641 free_energy=-300.45306468 pbc="T T T"
Ge       0.75261582       0.62795356       1.35323450       0.01494242       0.32301311       0.18406897       0.00000000
Ge       2.75960209      10.99966693       4.19047491       0.11070347       1.00675037       0.26081155       0.00000000
Ge       7.24797022       2.69417484       4.10811958      -0.28695048      -1.06457818       0.57434458      -0.00000000
Ge       7.16258541       6.89663703       4.11690984       0.24095971      -0.51351914      -0.25947234       0.00000000
Ge       7.40433909      10.76056686       4.11923479       0.16112529       0.24377723      -0.38380277      -0.00000000
Ge      11.01445261       2.81003861       4.14859318       0.70029232      -0.21229806      -0.36919905      -0.00000000
Ge      11.53780594       6.74918520       4.15912647      -0.12905729      -0.59829196      -0.51484707       0.00000000
Ge      11.53427966      10.71963330       4.02940244      -0.31036346       0.51666658      -0.16168704       0.00000000
Ge       0.88303835       2.05766652       7.01269989      -0.09418688      -0.09178932      -0.03869272      -0.00000000
Ge       0.75751487       6.10725633       6.92043156      -0.29187890       0.21974954       0.24806121       0.00000000
Ge       0.93228200      10.25920661       6.76075645      -0.40376645       0.04100581       0.04909382       0.00000000
Ge       4.87946252       2.14974699       6.93182177       0.39873985      -0.37254109       0.24540323      -0.00000000
Ge       4.83294011       6.20893439       6.74463745       0.43098162      -0.36717177       0.52831001       0.00000000
Ge       5.00069608      10.18334406       7.03052664       0.29371390       0.72215230       0.01225964      -0.00000000
Ge       9.24898786       1.94868477       7.06252943      -0.18788558      -0.26072803      -1.18316017      -0.00000000
Ge       9.01116833       6.27204784       7.05932819      -0.04017586      -0.41623733      -0.54279735       0.00000000
Ge       3.19792649       6.77817710       4.07136048       0.02791538      -0.18566398       0.00749850       0.00000000
Ge       3.09480856       2.48110724       4.01217435       0.05487599      -0.40099277      -0.02519934      -0.00000000
Ge       9.17677815      10.34607348       6.99194489      -0.03610600      -0.26437643      -0.17056622       0.00000000
Ge      11.31842880       8.16905237       9.46132779      -0.09429785       0.09032321      -0.02980968       0.00000000
Ge      11.15067213      12.35724398       9.59230135       0.35662712      -0.08086470       0.12925292       0.00000000
Ge       0.99915057       4.58169555       1.59000992       0.33330035      -0.11187958      -0.06003401       0.00000000
Ge       1.23558660       8.87203950       1.57917338      -0.54895645      -0.47116308      -0.30923427       0.00000000
Ge       5.17761347       0.53831065       1.59790958      -0.04451659      -0.50344529       0.06854194      -0.00000000
Ge       5.10907489       4.51017299       1.40498344       0.04883302      -0.12928982       0.22007122       0.00000000
Ge       9.51008177       0.42095564       1.55166831      -0.38840009       0.18805296      -0.22837427       0.00000000
Ge       9.22876436       4.83103122       1.22434739      -0.13112850       0.14835595       0.08181483       0.00000000
Ge       4.93540864       9.11454206       1.70949596       0.58176720      -0.28129980      -0.89714904       0.00000000
Ge       2.88275629       4.11991014       9.54710857       0.15902571      -0.18629955      -0.34703828       0.00000000
Ge       3.04404104       8.25559459       9.62191797      -0.05055268      -0.20161713       0.36910041       0.00000000
Ge       2.69068852      12.30035849       9.53015566       0.35828732       0.09735971       0.47555292       0.00000000
Ge       7.02161477       3.99202542       9.71434635      -0.34011496      -0.07939493      -0.77454444       0.00000000
Ge       7.20008694       7.96335577       9.60715854      -0.67663127       0.48045633       0.19832745       0.00000000
Ge       7.17952224      12.18843326       9.30677411      -0.28716915       0.33028037       0.06549717      -0.00000000
Ge      11.07891415       3.89690973       9.68726394       0.10767637       0.04578127      -0.21172369       0.00000000
Ge       9.61287925       8.56739266       1.45227168      -0.35925542      -0.12107664      -0.37524660       0.00000000
Se      11.36901758       0.28470825       7.11892337      -0.58226224      -0.00665204      -0.14761143      -0.00000000
Se       2.81242510       4.53892419       6.88855459       0.17887907      -0.61272828       0.60566753      -0.00000000
Se       2.92574956       8.67826553       7.15332611      -0.15747005      -0.70077515      -0.27321039      -0.00000000
Se       6.99800277       0.11342779       6.79278875       0.19732105       0.40401912       0.53207930      -0.00000000
Se       6.83823859       4.39139730       7.00844720       0.30942757       0.30615531       0.56075007      -0.00000000
Se       7.07312360       8.57933578       7.06755057       0.24509867      -0.13936299       0.19024405      -0.00000000
Se      11.05511538       4.52225885       7.11522543       0.16679270      -0.33826672      -0.13383796      -0.00000000
Se       9.47550349      -0.06673999       4.01490253      -0.14683952       0.04439880       0.03798380      -0.00000000
Se       0.60896664       0.32073690       3.92901948       0.56245700      -0.52479227      -0.14695816      -0.00000000
Se       0.71973057       4.49830777       4.08787152      -0.48001176       0.02198377      -0.10640313      -0.00000000
Se       0.98021686       8.39846033       4.10953597       0.56542711       0.20502471      -0.25973254      -0.00000000
Se       4.75971708       0.29472396       4.14237291      -0.37091702      -0.00711065      -0.27756039      -0.00000000
Se       5.13412497       4.09656376       3.97289163      -0.39838033       0.62112072      -0.28105227      -0.00000000
Se       5.23312058       8.52405509       4.11664220      -0.88036050       0.42688697       0.25685576      -0.00000000
Se       2.84702513       0.31349433       7.11491063      -0.05759878      -0.03168933      -0.40714713      -0.00000000
Se      11.16678031       8.46612414       6.92666324       0.02071919       0.27452739       0.05062028      -0.00000000
Se      11.41299088      10.33881524       1.45655548       0.48295027       0.35721315       0.23954024      -0.00000000
Se       2.68366270       2.38096841       1.46605077      -0.05039183       0.04809377       0.19088924      -0.00000000
Se      11.20991214       2.47224736       1.33653987       0.00565424      -0.49401502       0.92184867      -0.00000000
Se       9.04964461       4.30973103       3.73731533       0.41670204       1.28317135       0.03139504      -0.00000000
Se       0.74904459       2.31312015       9.53405863       0.16974188       0.30676618      -0.07721288      -0.00000000
Se       0.81594004       6.51473626       9.44687597       0.29271233      -0.12142508      -0.03246023      -0.00000000
Se       0.70864247      10.60503163       9.26241463      -0.05645090      -0.11635922       0.36477079      -0.00000000
Se       4.95384525       2.33298783       9.46876813      -0.15382481       0.10658007       0.03966502      -0.00000000
Se       4.92810013       6.38536521       9.35586715       0.04282976       0.36739565      -0.20099357      -0.00000000
Se       4.91591538      10.69993572       9.54861978      -0.08587162      -0.13933455      -0.08961666      -0.00000000
Se       8.97576506       2.20219477       9.44578636       0.19098348       0.06023949       0.88396704      -0.00000000
Se       9.12061298       6.34529590       9.51684072       0.19577835       0.08383547       0.24308628      -0.00000000
Se       9.27603091      10.53076584       9.48551929      -0.37333682       0.10805255       0.03004963      -0.00000000
Se       3.17680756       6.23508797       1.58195007      -0.50092439       0.26750918       0.04496714      -0.00000000
Se       2.92488675      10.72471916       1.72019859      -0.13306094       0.34191366      -0.18038328      -0.00000000
Se       7.19727180       2.05640164       1.69389830       0.43193147       0.09891056      -0.53570397      -0.00000000
Se       6.85506220       6.31208489       1.53887553       0.84235221       0.41459829       0.09653428      -0.00000000
Se       6.81882910      10.91551855       1.58835186       0.00820164      -0.22174867       0.19690753      -0.00000000
Se      11.30996980       6.57025814       1.38588166      -0.49694647      -0.19759318       0.69833991      -0.00000000
Se       9.09963592       8.62916988       3.92370761      -0.07968527      -0.03574914       0.09829042      -0.00000000
72
Lattice="12.447090427118395 -2.5095214835e-06 1.8450732096e-06 -2.5238319037e-06 12.518072417064788 -7.213913013e-07 2.1163259558e-06 -8.227546559e-07 11.090912270633178" Properties=species:S:1:pos:R:3:forces:R:3:magmoms:R:1 energy=-300.50254607 stress="0.008181063030026709 0.0008274030171143539 0.0006361878751489019 0.0008274030171143539 -0.0021676163257618297 -0.0018171508323135308 0.0006361878751489019 -0.0018171508323135308 -0.00575261652201485" dipole="_JSON [[0.0, 0.0, 0.0]]" magmom=0.0016881 free_energy=-300.50254607 pbc="T T T"
Ge       0.69922860       0.59572904       1.46351355       0.56606819       0.19797779       0.16126417       0.00000000
Ge       2.84811102      10.81345715       3.92924342       0.28397711       0.63642809      -0.48835758       0.00000000
Ge       7.25258770       2.64848016       4.16012144       0.00681681      -0.44133661      -0.06234999      -0.00000000
Ge       7.12392895       7.04971129       4.25577778      -0.20188510      -0.21388023      -0.04054561      -0.00000000
Ge       7.19055254      10.88438579       4.01088430       0.24375546       0.35735618      -0.13035401      -0.00000000
Ge      11.48447753       2.65666146       4.17313259      -0.44385642       0.13934573      -0.38777362      -0.00000000
Ge      11.33696880       6.77607682       4.27324488       0.03107390      -0.19804225      -0.76475178       0.00000000
Ge      11.36968289      11.03460938       4.29164815      -0.20505364       0.32474204       0.05480177       0.00000000
Ge       0.86691773       1.98826188       6.86300241       0.19291112      -0.16599294      -0.46280633      -0.00000000
Ge       0.80042932       6.13973548       6.82802226       0.12916642      -0.51508482       0.26314756       0.00000000
Ge       0.68735806      10.32781790       7.01146368       0.18640025       0.02759567      -0.73935188       0.00000000
Ge       5.01543677       1.99007919       7.00532294      -0.08413613      -0.29648896       0.22724567      -0.00000000
Ge       5.15380659       6.23267032       7.00527801      -0.04782988      -0.30836949      -0.05377703       0.00000000
Ge       4.69490337      10.17897128       7.07112829       0.60122890       0.75271140      -0.43639091      -0.00000000
Ge       9.09172675       1.78466225       7.01100798       0.11106195       0.41742017      -0.40637323      -0.00000000
Ge       9.23718266       6.21280679       6.86421349      -0.43974667      -0.08836798      -0.29744960       0.00000000
Ge       2.75848929       6.93803971       4.07252787       0.44274113      -0.26698800       0.16784128       0.00000000
Ge       3.39099046       2.56088956       4.24723425       0.07050094      -0.04172169      -0.02194378      -0.00000000
Ge       9.03416068      10.17286396       6.98266404      -0.24078968       0.60076901      -0.42781935      -0.00000000
Ge      11.12448540       8.20940421       9.67180806       0.08642980      -0.20853888      -0.37318391       0.00000000
Ge      11.26028148      12.21866454       9.54942089      -0.19761839       0.12293183       0.01342679       0.00000000
Ge       1.26124878       4.39523352       1.37894214       0.11388281      -0.03679865       0.55114800       0.00000000
Ge       0.77933492       8.97162736       1.30535331       0.12459426      -0.22377834       0.37865519       0.00000000
Ge       5.33297522       0.29320552       1.47390464       0.38368156       0.41335413      -0.27584101      -0.00000000
Ge       5.10471432       4.73606089       1.31395234       0.17779480       0.13746357       0.33419053       0.00000000
Ge       9.50807148       0.57941456       1.20783339      -0.63853997       0.27331641       0.47272327       0.00000000
Ge       9.18111291       4.84373457       1.49752508      -0.15841779      -0.14882118       0.10878077       0.00000000
Ge       4.83099487       8.95552516       1.35133645       0.24196018       0.17150276      -0.50241297       0.00000000
Ge       2.81063935       3.76334537       9.61297245      -0.18977276       0.52220112      -0.51163834       0.00000000
Ge       2.90396021       8.08804704       9.51935080       0.13240956       0.20029834      -0.00936165       0.00000000
Ge       3.01016597      12.36258753       9.72421389       0.20899086       0.00908520      -0.46134215       0.00000000
Ge       7.18658004       4.11406382       9.70490592      -0.00523977      -0.32833029      -0.35653800      -0.00000000
Ge       7.03812299       8.01995816       9.62779012      -0.06136399       0.72538786      -0.08721364       0.00000000
Ge       7.20688447      12.25551423       9.61671938      -0.17230731       0.13017867      -0.22801128      -0.00000000
Ge      11.45342755       4.19294662       9.78122732      -0.23423679      -0.21307471      -0.48579195       0.00000000
Ge       9.52056535       8.67026634       1.53660822      -0.19405916      -0.12276803       0.01583569       0.00000000
Se      11.19409398       0.16384932       7.04819124      -0.08005913      -0.04665925       0.10937875      -0.00000000
Se       2.79043719       4.26299793       6.95777810      -0.09048808       0.47644886       0.71283412      -0.00000000
Se       2.81699778       8.53374764       6.96165065      -0.48543932      -0.42752007       0.43003608      -0.00000000
Se       7.10029009       0.20371032       7.05136748      -0.50040337      -0.24831211       0.20475599      -0.00000000
Se       7.06782027       4.47015431       7.11905663      -0.13045883      -0.12461661       0.16816707      -0.00000000
Se       6.85754816       8.64627094       7.01436034       0.02321825      -0.51841984       0.29979833      -0.00000000
Se      11.06804428       4.52730953       7.15136760       0.61110406      -0.42747440       0.24411967      -0.00000000
Se       9.27114126       0.10040005       3.81841502      -0.04529258      -0.09286078      -0.15430999      -0.00000000
Se       0.92323622       0.25254671       4.00181888      -0.30964065      -0.23245927      -0.24418743      -0.00000000
Se       0.83479988       4.44754321       4.02004365       0.00351266       0.13399678      -0.47997824      -0.00000000
Se       0.77676700       8.58301766       4.05723686       0.23534655       0.10810078      -0.67197256      -0.00000000
Se       5.10785393       0.28354684       3.92852356      -0.53092164      -0.50692683       0.43182355      -0.00000000
Se       5.28769923       4.30585857       3.84482504      -0.46146666       0.16592998       0.06860501      -0.00000000
Se       4.85368814       8.70551942       3.81325255      -0.07487727      -0.22878588       0.58096291      -0.00000000
Se       2.84320404       0.21499120       7.07045726       0.04831038       0.06575558       0.14768376      -0.00000000
Se      11.05320639       8.63650679       7.06605755       0.36327765      -0.62846809       0.41551532      -0.00000000
Se      11.31217871      10.58934108       1.76760233      -0.03888082       0.11555381      -0.45974245      -0.00000000
Se       2.93961819       2.29154458       1.76620789      -0.47784241       0.14324922      -0.55063109      -0.00000000
Se      11.27948732       2.45471536       1.44454175       0.03549568      -0.28131237       0.56124020      -0.00000000
Se       9.20202285       4.27214101       4.00187027       0.45126656       0.51616220      -0.04048255      -0.00000000
Se       0.68448199       2.21900450       9.31872614       0.05634958       0.19208317       0.76989876      -0.00000000
Se       0.73391140       6.51496471       9.38971053      -0.08891575      -0.17620374      -0.02120012      -0.00000000
Se       0.82554392      10.59573301       9.41607637      -0.09325029      -0.12526879       0.83216589      -0.00000000
Se       4.72750631       2.17716691       9.55387207       0.63379817      -0.07368451      -0.16459522      -0.00000000
Se       5.02364273       6.44140233       9.53670154      -0.51929861      -0.22095651      -0.13925574      -0.00000000
Se       4.96749788      10.57338143       9.52411029      -0.20038773       0.20846816       0.23017404      -0.00000000
Se       8.92760280       2.22064842       9.47592186       0.36886251       0.27171931       0.42410714      -0.00000000
Se       8.99572560       6.40256467       9.34872468       0.39018504       0.10332302       0.56120253      -0.00000000
Se       9.12770718      10.48462079       9.44679769       0.01172052       0.24417289       0.47448404      -0.00000000
Se       2.92626235       6.36045702       1.58878567       0.25659135       0.02011158      -0.26580112      -0.00000000
Se       2.72771956      10.70862155       1.21482313       0.32296125      -0.17787014       1.12801150      -0.00000000
Se       7.33329934       2.27026846       1.63857659      -0.20754148      -0.58268766      -0.34848552      -0.00000000
Se       7.14771600       6.53168329       1.75311530      -0.18639857      -0.09194146      -0.47296872      -0.00000000
Se       6.92754167      10.67735190       1.47151565      -0.07312166      -0.18572296       0.09843027      -0.00000000
Se      11.18101275       6.53081254       1.52802825      -0.06234044       0.19432646       0.61422441      -0.00000000
Se       9.16879074       8.59694186       4.07837004       0.02443251       0.09706657      -0.23168966      -0.00000000
72
Lattice="12.44294499134527 -2.5086857011e-06 1.844458718e-06 -2.5241223058e-06 12.519512796193029 -7.214743075e-07 2.1170235985e-06 -8.230258754e-07 11.094568367836123" Properties=species:S:1:pos:R:3:forces:R:3:magmoms:R:1 energy=-300.54885671 stress="0.006449442418427281 0.00036539897187345103 0.00020084152135444767 0.00036539897187345103 -0.0036052496054497416 -0.001559714739035593 0.00020084152135444767 -0.001559714739035593 -0.014605077796177016" dipole="_JSON [[0.0, 0.0, 0.0]]" magmom=0.0018978 free_energy=-300.54885671 pbc="T T T"
Ge       0.91842452       0.65440968       1.57043209       0.03777899      -0.01113272      -0.48738184      -0.00000000
Ge       2.90741882      10.94191516       3.74217087       0.00722749       0.13684374       1.38862746      -0.00000000
Ge       7.24219248       2.59894084       4.23811579       0.01744275       0.17385714      -0.48495790       0.00000000
Ge       6.99966208       6.89686683       4.15669381      -0.06472871       0.22809745      -0.19933871       0.00000000
Ge       7.22653622      11.07100951       3.91469863      -0.04343458      -0.56993322       0.21453236       0.00000000
Ge      11.24914505       2.84854286       4.07432718       0.43301270      -0.55402489       0.18516101       0.00000000
Ge      11.29784974       6.76203113       4.03418205       0.10411290       0.17763011       1.15473388       0.00000000
Ge      11.31734208      11.12073063       4.25678452      -0.04568618      -0.27846888      -0.28040642      -0.00000000
Ge       1.06726624       2.11093301       6.79548223      -0.32365458      -0.21151369       0.57570733       0.00000000
Ge       0.74196413       6.05373583       6.73098504      -0.28970512       0.52189847       0.36144729      -0.00000000
Ge       0.71405815      10.20229904       7.00261232       0.06419455      -0.07456177       0.49089597      -0.00000000
Ge       5.07795112       1.83247283       7.04548245      -0.19167728      -0.20014787      -0.44326584       0.00000000