 vasp.6.4.2 20Jul23 (build Oct 12 2023 10:31:02) complex                         
 executed on              LinuxNV date 2024.11.02  01:16:21
 running  128 mpi-ranks, with    1 threads/rank, on    2 nodes
 distrk:  each k-point on   64 cores,    2 groups
 distr:  one band on NCORE=   8 cores,    8 groups


--------------------------------------------------------------------------------------------------------


 INCAR:
   ENCUT = 520.000000
   SIGMA = 0.050000
   EDIFF = 1.00e-06
   ALGO = N
   GGA = PE
   PREC = Accurate
   SYSTEM = 01_AOPT
   ICHARG = 0
   ISMEAR = 0
   ISPIN = 2
   ISTART = 1
   ISYM = -1
   KPAR = 2
   LORBIT = 11
   NBANDS = 220
   NELM = 100
   NELMIN = 5
   NPAR = 8
   LASPH = .TRUE.
   LCHARG = .FALSE.
   LWAVE = .FALSE.
   LREAL = .FALSE.

 POTCAR:    PAW_PBE Ge 05Jan2001                  
 POTCAR:    PAW_PBE Se 06Sep2000                  
 -----------------------------------------------------------------------------
|                                                                             |
|           W    W    AA    RRRRR   N    N  II  N    N   GGGG   !!!           |
|           W    W   A  A   R    R  NN   N  II  NN   N  G    G  !!!           |
|           W    W  A    A  R    R  N N  N  II  N N  N  G       !!!           |
|           W WW W  AAAAAA  RRRRR   N  N N  II  N  N N  G  GGG   !            |
|           WW  WW  A    A  R   R   N   NN  II  N   NN  G    G                |
|           W    W  A    A  R    R  N    N  II  N    N   GGGG   !!!           |
|                                                                             |
|     You use a magnetic or noncollinear calculation, but did not specify     |
|     the initial magnetic moment with the MAGMOM tag. Note that a            |
|     default of 1 will be used for all atoms. This ferromagnetic setup       |
|     may break the symmetry of the crystal, in particular it may rule        |
|     out finding an antiferromagnetic solution. Thence, we recommend         |
|     setting the initial magnetic moment manually or verifying carefully     |
|     that this magnetic setup is desired.                                    |
|                                                                             |
 -----------------------------------------------------------------------------

 POTCAR:    PAW_PBE Ge 05Jan2001                  
   VRHFIN =Ge: s2p2                                                                                 
   LEXCH  = PE                                                                                      
   EATOM  =   104.9960 eV,    7.7170 Ry                                                             
                                                                                                    
   TITEL  = PAW_PBE Ge 05Jan2001                                                                    
   LULTRA =        F    use ultrasoft PP ?                                                          
   IUNSCR =        1    unscreen: 0-lin 1-nonlin 2-no                                               
   RPACOR =    2.170    partial core radius                                                         
   POMASS =   72.610; ZVAL   =    4.000    mass and valenz                                          
   RCORE  =    2.300    outmost cutoff radius                                                       
   RWIGS  =    2.300; RWIGS  =    1.217    wigner-seitz radius (au A)                               
   ENMAX  =  173.807; ENMIN  =  130.355 eV                                                          
   ICORE  =        3    local potential                                                             
   LCOR   =        T    correct aug charges                                                         
   LPAW   =        T    paw PP                                                                      
   EAUG   =  385.843                                                                                
   DEXC   =    0.000                                                                                
   RMAX   =    2.342    core radius for proj-oper                                                   
   RAUG   =    1.300    factor for augmentation sphere                                              
   RDEP   =    2.318    radius for radial grids                                                     
   RDEPT  =    2.103    core radius for aug-charge                                                  
                                                                                                    
   Atomic configuration                                                                             
   10 entries                                                                                       
     n  l   j            E        occ.                                                              
     1  0  0.50    -10959.8463   2.0000                                                             
     2  0  0.50     -1371.6056   2.0000                                                             
     2  1  1.50     -1198.4791   6.0000                                                             
     3  0  0.50      -168.4733   2.0000                                                             
     3  1  1.50      -115.6019   6.0000                                                             
     3  2  2.50       -29.3106  10.0000                                                             
     4  0  0.50       -11.7309   2.0000                                                             
     4  1  0.50        -3.8952   2.0000                                                             
     4  2  1.50        -4.0817   0.0000                                                             
     4  3  2.50        -4.0817   0.0000                                                             
   Description                                                                                      
     l       E           TYP  RCUT    TYP  RCUT                                                     
     0    -11.7309493     23  2.300                                                                 
     0     -7.4578696     23  2.300                                                                 
     1     -3.8952261     23  2.300                                                                 
     1      6.1178114     23  2.300                                                                 
     2     -4.0817478     23  2.300                                                                 
     3     -1.3605826      7  2.300                                                                 
  local pseudopotential read in
  partial core-charges read in
  partial kinetic energy density read in
  atomic valenz-charges read in
  non local Contribution for L=            0  read in
    real space projection operators read in
  non local Contribution for L=            0  read in
    real space projection operators read in
  non local Contribution for L=            1  read in
    real space projection operators read in
  non local Contribution for L=            1  read in
    real space projection operators read in
  non local Contribution for L=            2  read in
    real space projection operators read in
    PAW grid and wavefunctions read in
 
   number of l-projection  operators is LMAX  =            5
   number of lm-projection operators is LMMAX =           13
 
 POTCAR:    PAW_PBE Se 06Sep2000                  
   VRHFIN =Se: s2p4                                                                                 
   LEXCH  = PE                                                                                      
   EATOM  =   257.1286 eV,   18.8984 Ry                                                             
                                                                                                    
   TITEL  = PAW_PBE Se 06Sep2000                                                                    
   LULTRA =        F    use ultrasoft PP ?                                                          
   IUNSCR =        1    unscreen: 0-lin 1-nonlin 2-no                                               
   RPACOR =    1.900    partial core radius                                                         
   POMASS =   78.960; ZVAL   =    6.000    mass and valenz                                          
   RCORE  =    2.100    outmost cutoff radius                                                       
   RWIGS  =    2.200; RWIGS  =    1.164    wigner-seitz radius (au A)                               
   ENMAX  =  211.555; ENMIN  =  158.666 eV                                                          
   ICORE  =        3    local potential                                                             
   LCOR   =        T    correct aug charges                                                         
   LPAW   =        T    paw PP                                                                      
   EAUG   =  446.842                                                                                
   DEXC   =    0.000                                                                                
   RMAX   =    2.147    core radius for proj-oper                                                   
   RAUG   =    1.300    factor for augmentation sphere                                              
   RDEP   =    2.177    radius for radial grids                                                     
   RDEPT  =    1.928    core radius for aug-charge                                                  
                                                                                                    
   Atomic configuration                                                                             
   10 entries                                                                                       
     n  l   j            E        occ.                                                              
     1  0  0.50    -12503.4787   2.0000                                                             
     2  0  0.50     -1606.9547   2.0000                                                             
     2  1  1.50     -1413.3140   6.0000                                                             
     3  0  0.50      -213.4885   2.0000                                                             
     3  1  1.50      -152.9538   6.0000                                                             
     3  2  2.50       -53.1221  10.0000                                                             
     4  0  0.50       -17.2865   2.0000                                                             
     4  1  0.50        -6.5110   4.0000                                                             
     4  2  2.50        -6.8029   0.0000                                                             
     4  3  2.50        -6.8029   0.0000                                                             
   Description                                                                                      
     l       E           TYP  RCUT    TYP  RCUT                                                     
     0    -17.2865377     23  2.100                                                                 
     0    -15.3094411     23  2.100                                                                 
     1     -6.5110275     23  2.100                                                                 
     1     -0.0695192     23  2.100                                                                 
     2     -6.8029130     23  2.100                                                                 
     3     -1.3605826      7  2.100                                                                 
  local pseudopotential read in
  partial core-charges read in
  partial kinetic energy density read in
  atomic valenz-charges read in
  non local Contribution for L=            0  read in
    real space projection operators read in
  non local Contribution for L=            0  read in
    real space projection operators read in
  non local Contribution for L=            1  read in
    real space projection operators read in
  non local Contribution for L=            1  read in
    real space projection operators read in
  non local Contribution for L=            2  read in
    real space projection operators read in
    PAW grid and wavefunctions read in
 
   number of l-projection  operators is LMAX  =            5
   number of lm-projection operators is LMMAX =           13
 
 -----------------------------------------------------------------------------
|                                                                             |
|               ----> ADVICE to this user running VASP <----                  |
|                                                                             |
|     You have a (more or less) 'large supercell' and for larger cells it     |
|     might be more efficient to use real-space projection operators.         |
|     Therefore, try LREAL= Auto in the INCAR file.                           |
|     Mind: For very accurate calculation, you might also keep the            |
|     reciprocal projection scheme (i.e. LREAL=.FALSE.).                      |
|                                                                             |
 -----------------------------------------------------------------------------

  PAW_PBE Ge 05Jan2001                  :
 energy of atom  1       EATOM= -104.9960
 kinetic energy error for atom=    0.0002 (will be added to EATOM!!)
  PAW_PBE Se 06Sep2000                  :
 energy of atom  2       EATOM= -257.1286
 kinetic energy error for atom=    0.0007 (will be added to EATOM!!)
 
 
 POSCAR: Ge Se
  positions in cartesian coordinates
  No initial velocities read in
 exchange correlation table for  LEXCH =        8
   RHO(1)=    0.500       N(1)  =     2000
   RHO(2)=  100.500       N(2)  =     4000
 


--------------------------------------------------------------------------------------------------------


 ion  position               nearest neighbor table
   1  0.060  0.016  0.099-  55 2.56  45 2.64  53 2.67
   2  0.244  0.865  0.376-  67 2.54  45 2.63  48 2.85
   3  0.584  0.200  0.364-  68 2.50  49 2.58  56 2.59
   4  0.562  0.530  0.373-  50 2.59  69 2.62  49 2.81
   5  0.554  0.870  0.356-  70 2.47  48 2.60  44 2.78
   6  0.903  0.189  0.384-  55 2.65  56 2.75
   7  0.899  0.519  0.362-  71 2.41  72 2.52
   8  0.893  0.849  0.358-  53 2.55  44 2.65  72 2.83
   9  0.082  0.136  0.636-  37 2.55  57 2.56  51 2.66
  10  0.065  0.472  0.616-  58 2.54  38 2.55  43 2.56
  11  0.052  0.827  0.633-  59 2.47  52 2.64  37 2.78
  12  0.393  0.150  0.617-  51 2.56  60 2.65  40 2.71
  13  0.372  0.498  0.627-  39 2.54  61 2.64  38 2.69
  14  0.432  0.816  0.646-  62 2.56  42 2.62  39 2.74
  15  0.716  0.162  0.637-  41 2.54  40 2.61  63 2.69
  16  0.753  0.475  0.626-  41 2.60  64 2.64  43 2.71
  17  0.232  0.539  0.384-  66 2.48  47 2.62  50 2.69
  18  0.230  0.175  0.372-  54 2.51  46 2.62  45 2.73
  19  0.732  0.822  0.621-  65 2.55  42 2.55  52 2.62
  20  0.897  0.658  0.858-  52 2.51  58 2.63  64 2.71
  21  0.873  0.017  0.863-  37 2.54  63 2.65  65 2.70
  22  0.061  0.340  0.140-  46 2.53  71 2.65
  23  0.088  0.716  0.124-  67 2.58  47 2.61  53 2.67
  24  0.419  0.044  0.135-  48 2.54  68 2.58  54 2.74
  25  0.383  0.367  0.143-  66 2.44  49 2.53  54 2.60
  26  0.734  0.041  0.132-  68 2.57  44 2.66  55 2.70
  27  0.747  0.375  0.129-  56 2.58  69 2.71  71 2.74
  28  0.403  0.694  0.116-  67 2.65  50 2.70
  29  0.210  0.326  0.887-  57 2.56  38 2.57  60 2.80
  30  0.197  0.664  0.872-  58 2.48  39 2.59  59 2.63
  31  0.247  0.979  0.903-  51 2.63  62 2.69  59 2.73
  32  0.539  0.338  0.876-  60 2.47  61 2.56  41 2.69
  33  0.578  0.634  0.858-  64 2.56  61 2.63  42 2.64
  34  0.553  0.002  0.883-  40 2.54  62 2.55  65 2.70
  35  0.900  0.309  0.879-  63 2.47  57 2.62  43 2.63
  36  0.728  0.676  0.126-  72 2.45  69 2.57  70 2.74
  37  0.923  0.008  0.641-  21 2.54   9 2.55  11 2.78
  38  0.221  0.346  0.657-  10 2.55  29 2.57  13 2.69
  39  0.267  0.670  0.652-  13 2.54  30 2.59  14 2.74
  40  0.563  0.020  0.655-  34 2.54  15 2.61  12 2.71
  41  0.603  0.331  0.644-  15 2.54  16 2.60  32 2.69
  42  0.588  0.677  0.625-  19 2.55  14 2.62  33 2.64
  43  0.917  0.332  0.644-  10 2.56  35 2.63  16 2.71
  44  0.738  0.995  0.367-   8 2.65  26 2.66   5 2.78
  45  0.093  0.008  0.334-   2 2.63   1 2.64  18 2.73
  46  0.088  0.329  0.366-  22 2.53  18 2.62
  47  0.092  0.693  0.358-  23 2.61  17 2.62
  48  0.411  0.021  0.362-  24 2.54   5 2.60   2 2.85
  49  0.436  0.344  0.362-  25 2.53   3 2.58   4 2.81
  50  0.405  0.665  0.358-   4 2.59  17 2.69  28 2.70
  51  0.252  0.009  0.668-  12 2.56  31 2.63   9 2.66
  52  0.893  0.687  0.634-  20 2.51  19 2.62  11 2.64
  53  0.924  0.854  0.131-   8 2.55   1 2.67  23 2.67
  54  0.262  0.198  0.149-  18 2.51  25 2.60  24 2.74
  55  0.917  0.156  0.149-   1 2.56   6 2.65  26 2.70
  56  0.740  0.336  0.358-  27 2.58   3 2.59   6 2.75
  57  0.066  0.182  0.860-  29 2.56   9 2.56  35 2.62
  58  0.059  0.525  0.837-  30 2.48  10 2.54  20 2.63
  59  0.084  0.840  0.852-  11 2.47  30 2.63  31 2.73
  60  0.395  0.205  0.848-  32 2.47  12 2.65  29 2.80
  61  0.414  0.501  0.861-  32 2.56  33 2.63  13 2.64
  62  0.418  0.849  0.873-  34 2.55  14 2.56  31 2.69
  63  0.744  0.186  0.876-  35 2.47  21 2.65  15 2.69
  64  0.740  0.508  0.861-  33 2.56  16 2.64  20 2.71
  65  0.719  0.866  0.845-  19 2.55  21 2.70  34 2.70
  66  0.247  0.506  0.163-  25 2.44  17 2.48
  67  0.252  0.840  0.148-   2 2.54  23 2.58  28 2.65
  68  0.578  0.176  0.141-   3 2.50  26 2.57  24 2.58
  69  0.589  0.525  0.138-  36 2.57   4 2.62  27 2.71
  70  0.586  0.843  0.139-   5 2.47  36 2.74
  71  0.925  0.503  0.147-   7 2.41  22 2.65  27 2.74
  72  0.761  0.666  0.344-  36 2.45   7 2.52   8 2.83
 

IMPORTANT INFORMATION: All symmetrisations will be switched off!
NOSYMM: (Re-)initialisation of all symmetry stuff for point group C_1.


----------------------------------------------------------------------------------------

                                     Primitive cell                                     

  volume of cell :    1725.0979

  direct lattice vectors                    reciprocal lattice vectors
    12.429699048 -0.000001076 -0.000002438     0.080452471  0.000000007  0.000000020
    -0.000001084 12.521713485  0.000001448     0.000000007  0.079861275 -0.000000012
    -0.000002799  0.000001650 11.083817852     0.000000018 -0.000000010  0.090221620

  length of vectors
    12.429699048 12.521713485 11.083817852     0.080452471  0.079861275  0.090221620

  position of ions in fractional coordinates (direct lattice)
     0.060303523  0.016295573  0.099100603
     0.243611483  0.865304123  0.375571804
     0.583691169  0.200017780  0.364115556
     0.562122367  0.530377938  0.372844557
     0.554168372  0.869640243  0.356151622
     0.902729120  0.189497016  0.384415777
     0.899495068  0.519133328  0.361893775
     0.892542063  0.849401998  0.357684323
     0.082134142  0.135905788  0.635528569
     0.064660407  0.472425181  0.616168682
     0.051881915  0.827325092  0.632835834
     0.393478265  0.150301784  0.617043460
     0.372404371  0.497510317  0.626972541
     0.431605501  0.815773480  0.645954178
     0.715974886  0.162353630  0.636773683
     0.753407471  0.474735561  0.626074790
     0.231867905  0.538854517  0.383699580
     0.229795522  0.175105826  0.371704729
     0.731970574  0.821600081  0.621333565
     0.896678364  0.657969342  0.858198092
     0.872911391  0.017275731  0.863348545
     0.061232825  0.339704801  0.139935596
     0.087980953  0.716317117  0.123679189
     0.418566915  0.043969659  0.134520874
     0.383132370  0.367217786  0.143289596
     0.734274117  0.041066141  0.132258511
     0.746764517  0.374820338  0.128986086
     0.403412345  0.693966109  0.115904532
     0.209567198  0.326082366  0.887461598
     0.196974621  0.663846626  0.871615397
     0.247390290  0.979036671  0.903114094
     0.538504880  0.338374210  0.876200367
     0.578250332  0.634034997  0.858134805
     0.553167701  0.002224642  0.882794144
     0.899569859  0.308601279  0.879099999
     0.727779181  0.676498123  0.126387871
     0.922711661  0.008016669  0.641467235
     0.221106099  0.345860245  0.656701436
     0.267439907  0.669730475  0.651829296
     0.563476532  0.019557282  0.654839105
     0.603242075  0.331173301  0.644377037
     0.587737072  0.676824415  0.625402047
     0.916596686  0.332337154  0.643903472
     0.738301682  0.994773104  0.366642463
     0.092832519  0.007767889  0.333991339
     0.087776830  0.329186020  0.365932869
     0.092081048  0.693225276  0.357557803
     0.410709756  0.021206571  0.361912487
     0.435723385  0.344200545  0.361854563
     0.404905810  0.665370636  0.357775767
     0.251670313  0.009368076  0.668283860
     0.893100603  0.687431227  0.634457775
     0.923838339  0.854268011  0.130754625
     0.262137723  0.197638018  0.149259965
     0.917276510  0.156475283  0.148676678
     0.740193246  0.336443174  0.357648920
     0.066146328  0.181855412  0.860129844
     0.058765291  0.524652812  0.837427610
     0.083893325  0.840108994  0.852032039
     0.394965501  0.204725472  0.847774791
     0.414362475  0.500598626  0.860512309
     0.418302030  0.849365093  0.872874674
     0.744171794  0.185667650  0.876059071
     0.740416855  0.507562816  0.860869722
     0.718617250  0.866245493  0.844995325
     0.246530839  0.505808466  0.163389424
     0.252241731  0.840213060  0.147988131
     0.577997211  0.175776366  0.140626581
     0.589204800  0.524591015  0.138249139
     0.585892643  0.843298599  0.138640050
     0.924941258  0.502544887  0.147174788
     0.760984826  0.665563114  0.344022878

  ion indices of the primitive-cell ions
   primitive index   ion index
                 1           1
                 2           2
                 3           3
                 4           4
                 5           5
                 6           6
                 7           7
                 8           8
                 9           9
                10          10
                11          11
                12          12
                13          13
                14          14
                15          15
                16          16
                17          17
                18          18
                19          19
                20          20
                21          21
                22          22
                23          23
                24          24
                25          25
                26          26
                27          27
                28          28
                29          29
                30          30
                31          31
                32          32
                33          33
                34          34
                35          35
                36          36
                37          37
                38          38
                39          39
                40          40
                41          41
                42          42
                43          43
                44          44
                45          45
                46          46
                47          47
                48          48
                49          49
                50          50
                51          51
                52          52
                53          53
                54          54
                55          55
                56          56
                57          57
                58          58
                59          59
                60          60
                61          61
                62          62
                63          63
                64          64
                65          65
                66          66
                67          67
                68          68
                69          69
                70          70
                71          71
                72          72

----------------------------------------------------------------------------------------

 
 
 KPOINTS: KPOINTS created by Atomic Simulation Env

Automatic generation of k-mesh.
 Grid dimensions read from file:
 generate k-points for:    2    2    2

 Generating k-lattice:

  Cartesian coordinates                     Fractional coordinates (reciprocal lattice)
     0.040226235  0.000000003  0.000000010     0.500000000 -0.000000000 -0.000000000
     0.000000003  0.039930637 -0.000000006     0.000000000  0.500000000 -0.000000000
     0.000000009 -0.000000005  0.045110810     0.000000000  0.000000000  0.500000000

  Length of vectors
     0.040226235  0.039930637  0.045110810

  Shift w.r.t. Gamma in fractional coordinates (k-lattice)
     0.000000000  0.000000000  0.000000000

 
 Subroutine IBZKPT returns following result:
 ===========================================
 
 Found      8 irreducible k-points:
 
 Following reciprocal coordinates:
            Coordinates               Weight
  0.000000  0.000000  0.000000      1.000000
  0.500000  0.000000  0.000000      1.000000
  0.000000  0.500000  0.000000      1.000000
  0.500000  0.500000  0.000000      1.000000
  0.000000  0.000000  0.500000      1.000000
  0.500000  0.000000  0.500000      1.000000
  0.000000  0.500000  0.500000      1.000000
  0.500000  0.500000  0.500000      1.000000
 
 Following cartesian coordinates:
            Coordinates               Weight
  0.000000  0.000000  0.000000      1.000000
  0.040226  0.000000  0.000000      1.000000
  0.000000  0.039931 -0.000000      1.000000
  0.040226  0.039931  0.000000      1.000000
  0.000000 -0.000000  0.045111      1.000000
  0.040226 -0.000000  0.045111      1.000000
  0.000000  0.039931  0.045111      1.000000
  0.040226  0.039931  0.045111      1.000000
 
 -----------------------------------------------------------------------------
|                                                                             |
|           W    W    AA    RRRRR   N    N  II  N    N   GGGG   !!!           |
|           W    W   A  A   R    R  NN   N  II  NN   N  G    G  !!!           |
|           W    W  A    A  R    R  N N  N  II  N N  N  G       !!!           |
|           W WW W  AAAAAA  RRRRR   N  N N  II  N  N N  G  GGG   !            |
|           WW  WW  A    A  R   R   N   NN  II  N   NN  G    G                |
|           W    W  A    A  R    R  N    N  II  N    N   GGGG   !!!           |
|                                                                             |
|     The number of bands has been changed from the values supplied in        |
|     the INCAR file. This is a result of running the parallel version.       |
|     The orbitals not found in the WAVECAR file will be initialized with     |
|     random numbers, which is usually adequate. For correlated               |
|     calculations, however, you should redo the groundstate calculation.     |
|     I found NBANDS = 220. Now, NBANDS = 224.                                |
|                                                                             |
 -----------------------------------------------------------------------------



--------------------------------------------------------------------------------------------------------




 Dimension of arrays:
   k-points           NKPTS =      8   k-points in BZ     NKDIM =      8   number of bands    NBANDS=    224
   number of dos      NEDOS =    301   number of ions     NIONS =     72
   non local maximal  LDIM  =      5   non local SUM 2l+1 LMDIM =     13
   total plane-waves  NPLWV = 774144
   max r-space proj   IRMAX =      1   max aug-charges    IRDMAX=  24587
   dimension x,y,z NGX =    96 NGY =   96 NGZ =   84
   dimension x,y,z NGXF=   192 NGYF=  192 NGZF=  168
   support grid    NGXF=   192 NGYF=  192 NGZF=  168
   ions per type =              36  36
   NGX,Y,Z   is equivalent  to a cutoff of  12.84, 12.75, 12.60 a.u.
   NGXF,Y,Z  is equivalent  to a cutoff of  25.68, 25.49, 25.20 a.u.

 SYSTEM =  01_AOPT                                 
 POSCAR =  Ge Se                                   

 Startparameter for this run:
   NWRITE =      2    write-flag & timer
   PREC   = accura    normal or accurate (medium, high low for compatibility)
   ISTART =      0    job   : 0-new  1-cont  2-samecut
   ICHARG =      2    charge: 1-file 2-atom 10-const
   ISPIN  =      2    spin polarized calculation?
   LNONCOLLINEAR =      F non collinear calculations
   LSORBIT =      F    spin-orbit coupling
   INIWAV =      1    electr: 0-lowe 1-rand  2-diag
   LASPH  =      T    aspherical Exc in radial PAW
 Electronic Relaxation 1
   ENCUT  =  520.0 eV  38.22 Ry    6.18 a.u.  23.11 23.28 20.61*2*pi/ulx,y,z
   ENINI  =  520.0     initial cutoff
   ENAUG  =  446.8 eV  augmentation charge cutoff
   NELM   =    100;   NELMIN=  5; NELMDL=  0     # of ELM steps 
   EDIFF  = 0.1E-05   stopping-criterion for ELM
   LREAL  =      F    real-space projection
   NLSPLINE    = F    spline interpolate recip. space projectors
   LCOMPAT=      F    compatible to vasp.4.4
   GGA_COMPAT  = T    GGA compatible to vasp.4.4-vasp.4.6
   LMAXPAW     = -100 max onsite density
   LMAXMIX     =    2 max onsite mixed and CHGCAR
   VOSKOWN=      0    Vosko Wilk Nusair interpolation
   ROPT   =    0.00000   0.00000
 Ionic relaxation
   EDIFFG = 0.1E-04   stopping-criterion for IOM
   NSW    =      0    number of steps for IOM
   NBLOCK =      1;   KBLOCK =      1    inner block; outer block 
   IBRION =     -1    ionic relax: 0-MD 1-quasi-New 2-CG
   NFREE  =      0    steps in history (QN), initial steepest desc. (CG)
   ISIF   =      2    stress and relaxation
   IWAVPR =     10    prediction:  0-non 1-charg 2-wave 3-comb
   ISYM   =     -1    0-nonsym 1-usesym 2-fastsym
   LCORR  =      T    Harris-Foulkes like correction to forces

   POTIM  = 0.5000    time-step for ionic-motion
   TEIN   =    0.0    initial temperature
   TEBEG  =    0.0;   TEEND  =   0.0 temperature during run
   SMASS  =  -3.00    Nose mass-parameter (am)
   estimated Nose-frequenzy (Omega)   =  0.10E-29 period in steps = 0.13E+47 mass=  -0.353E-26a.u.
   SCALEE = 1.0000    scale energy and forces
   NPACO  =    256;   APACO  = 10.0  distance and # of slots for P.C.
   PSTRESS=    0.0 pullay stress

  Mass of Ions in am
   POMASS =  72.61 78.96
  Ionic Valenz
   ZVAL   =   4.00  6.00
  Atomic Wigner-Seitz radii
   RWIGS  =  -1.00 -1.00
  virtual crystal weights 
   VCA    =   1.00  1.00
   NELECT =     360.0000    total number of electrons
   NUPDOWN=      -1.0000    fix difference up-down

 DOS related values:
   EMIN   =  10.00;   EMAX   =-10.00  energy-range for DOS
   EFERMI =   0.00;   METHOD = LEGACY      
   ISMEAR =     0;   SIGMA  =   0.05  broadening in eV -4-tet -1-fermi 0-gaus

 Electronic relaxation 2 (details)
   IALGO  =     38    algorithm
   LDIAG  =      T    sub-space diagonalisation (order eigenvalues)
   LSUBROT=      F    optimize rotation matrix (better conditioning)
   TURBO    =      0    0=normal 1=particle mesh
   IRESTART =      0    0=no restart 2=restart with 2 vectors
   NREBOOT  =      0    no. of reboots
   NMIN     =      0    reboot dimension
   EREF     =   0.00    reference energy to select bands
   IMIX   =      4    mixing-type and parameters
     AMIX     =   0.40;   BMIX     =  1.00
     AMIX_MAG =   1.60;   BMIX_MAG =  1.00
     AMIN     =   0.10
     WC   =   100.;   INIMIX=   1;  MIXPRE=   1;  MAXMIX= -45

 Intra band minimization:
   WEIMIN = 0.0000     energy-eigenvalue tresh-hold
   EBREAK =  0.11E-08  absolut break condition
   DEPER  =   0.30     relativ break condition  

   TIME   =   0.40     timestep for ELM

  volume/ion in A,a.u.               =      23.96       161.69
  Fermi-wavevector in a.u.,A,eV,Ry     =   0.971041  1.835002 12.829224  0.942921
  Thomas-Fermi vector in A             =   2.101226
 
 Write flags
   LWAVE        =      F    write WAVECAR
   LDOWNSAMPLE  =      F    k-point downsampling of WAVECAR
   LCHARG       =      F    write CHGCAR
   LVTOT        =      F    write LOCPOT, total local potential
   LVHAR        =      F    write LOCPOT, Hartree potential only
   LELF         =      F    write electronic localiz. function (ELF)
   LORBIT       =     11    0 simple, 1 ext, 2 COOP (PROOUT), +10 PAW based schemes


 Dipole corrections
   LMONO  =      F    monopole corrections only (constant potential shift)
   LDIPOL =      F    correct potential (dipole corrections)
   IDIPOL =      0    1-x, 2-y, 3-z, 4-all directions 
   EPSILON=  1.0000000 bulk dielectric constant

 Exchange correlation treatment:
   GGA     =    PE    GGA type
   LEXCH   =     8    internal setting for exchange type
   LIBXC   =     F    Libxc                    
   VOSKOWN =     0    Vosko Wilk Nusair interpolation
   LHFCALC =     F    Hartree Fock is set to
   LHFONE  =     F    Hartree Fock one center treatment
   AEXX    =    0.0000 exact exchange contribution

 Linear response parameters
   LEPSILON=     F    determine dielectric tensor
   LRPA    =     F    only Hartree local field effects (RPA)
   LNABLA  =     F    use nabla operator in PAW spheres
   LVEL    =     F    velocity operator in full k-point grid
   CSHIFT  =0.1000    complex shift for real part using Kramers Kronig
   OMEGAMAX=  -1.0    maximum frequency
   DEG_THRESHOLD= 0.2000000E-02 threshold for treating states as degnerate
   RTIME   =   -0.100 relaxation time in fs
  (WPLASMAI=    0.000 imaginary part of plasma frequency in eV, 0.658/RTIME)
   DFIELD  = 0.0000000 0.0000000 0.0000000 field for delta impulse in time
 
  Optional k-point grid parameters
   LKPOINTS_OPT  =     F    use optional k-point grid
   KPOINTS_OPT_MODE=     1    mode for optional k-point grid
 
 Orbital magnetization related:
   ORBITALMAG=     F  switch on orbital magnetization
   LCHIMAG   =     F  perturbation theory with respect to B field
   DQ        =  0.001000  dq finite difference perturbation B field
   LLRAUG    =     F  two centre corrections for induced B field
   LBONE     =     F  B-component reconstruction in AE one-centre
   LVGVCALC  =     T  calculate vGv susceptibility
   LVGVAPPL  =     F  apply vGv susceptibility instead of pGv for G=0

 Random number generation:
   RANDOM_GENERATOR = DEFAULT
   PCG_SEED         = not used


--------------------------------------------------------------------------------------------------------


 Static calculation
 charge density and potential will be updated during run
 spin polarized calculation
 Variant of blocked Davidson
 Davidson routine will perform the subspace rotation
 perform sub-space diagonalisation
    after iterative eigenvector-optimisation
 modified Broyden-mixing scheme, WC =      100.0
 initial mixing is a Kerker type mixing with AMIX =  0.4000 and BMIX =      1.0000
 Hartree-type preconditioning will be used
 using additional bands            44
 reciprocal scheme for non local part
 use partial core corrections
 calculate Harris-corrections to forces 
   (improved forces if not selfconsistent)
 use gradient corrections 
 use of overlap-Matrix (Vanderbilt PP)
 Gauss-broadening in eV      SIGMA  =   0.05


--------------------------------------------------------------------------------------------------------


  energy-cutoff  :      520.00
  volume of cell :     1725.10
      direct lattice vectors                 reciprocal lattice vectors
    12.429699048 -0.000001076 -0.000002438     0.080452471  0.000000007  0.000000020
    -0.000001084 12.521713485  0.000001448     0.000000007  0.079861275 -0.000000012
    -0.000002799  0.000001650 11.083817852     0.000000018 -0.000000010  0.090221620

  length of vectors
    12.429699048 12.521713485 11.083817852     0.080452471  0.079861275  0.090221620


 
 k-points in units of 2pi/SCALE and weight: KPOINTS created by Atomic Simulation Env
   0.00000000  0.00000000  0.00000000       0.125
   0.04022624  0.00000000  0.00000001       0.125
   0.00000000  0.03993064 -0.00000001       0.125
   0.04022624  0.03993064  0.00000000       0.125
   0.00000001 -0.00000001  0.04511081       0.125
   0.04022624 -0.00000000  0.04511082       0.125
   0.00000001  0.03993063  0.04511080       0.125
   0.04022625  0.03993064  0.04511081       0.125
 
 k-points in reciprocal lattice and weights: KPOINTS created by Atomic Simulation Env
   0.00000000  0.00000000  0.00000000       0.125
   0.50000000  0.00000000  0.00000000       0.125
   0.00000000  0.50000000  0.00000000       0.125
   0.50000000  0.50000000  0.00000000       0.125
   0.00000000  0.00000000  0.50000000       0.125
   0.50000000  0.00000000  0.50000000       0.125
   0.00000000  0.50000000  0.50000000       0.125
   0.50000000  0.50000000  0.50000000       0.125
 
 position of ions in fractional coordinates (direct lattice) 
   0.06030352  0.01629557  0.09910060
   0.24361148  0.86530412  0.37557180
   0.58369117  0.20001778  0.36411556
   0.56212237  0.53037794  0.37284456
   0.55416837  0.86964024  0.35615162
   0.90272912  0.18949702  0.38441578
   0.89949507  0.51913333  0.36189378
   0.89254206  0.84940200  0.35768432
   0.08213414  0.13590579  0.63552857
   0.06466041  0.47242518  0.61616868
   0.05188192  0.82732509  0.63283583
   0.39347826  0.15030178  0.61704346
   0.37240437  0.49751032  0.62697254
   0.43160550  0.81577348  0.64595418
   0.71597489  0.16235363  0.63677368
   0.75340747  0.47473556  0.62607479
   0.23186790  0.53885452  0.38369958
   0.22979552  0.17510583  0.37170473
   0.73197057  0.82160008  0.62133356
   0.89667836  0.65796934  0.85819809
   0.87291139  0.01727573  0.86334854
   0.06123283  0.33970480  0.13993560
   0.08798095  0.71631712  0.12367919
   0.41856692  0.04396966  0.13452087
   0.38313237  0.36721779  0.14328960
   0.73427412  0.04106614  0.13225851
   0.74676452  0.37482034  0.12898609
   0.40341235  0.69396611  0.11590453
   0.20956720  0.32608237  0.88746160
   0.19697462  0.66384663  0.87161540
   0.24739029  0.97903667  0.90311409
   0.53850488  0.33837421  0.87620037
   0.57825033  0.63403500  0.85813480
   0.55316770  0.00222464  0.88279414
   0.89956986  0.30860128  0.87910000
   0.72777918  0.67649812  0.12638787
   0.92271166  0.00801667  0.64146724
   0.22110610  0.34586024  0.65670144
   0.26743991  0.66973047  0.65182930
   0.56347653  0.01955728  0.65483911
   0.60324208  0.33117330  0.64437704
   0.58773707  0.67682441  0.62540205
   0.91659669  0.33233715  0.64390347
   0.73830168  0.99477310  0.36664246
   0.09283252  0.00776789  0.33399134
   0.08777683  0.32918602  0.36593287
   0.09208105  0.69322528  0.35755780
   0.41070976  0.02120657  0.36191249
   0.43572339  0.34420055  0.36185456
   0.40490581  0.66537064  0.35777577
   0.25167031  0.00936808  0.66828386
   0.89310060  0.68743123  0.63445778
   0.92383834  0.85426801  0.13075463
   0.26213772  0.19763802  0.14925996
   0.91727651  0.15647528  0.14867668
   0.74019325  0.33644317  0.35764892
   0.06614633  0.18185541  0.86012984
   0.05876529  0.52465281  0.83742761
   0.08389332  0.84010899  0.85203204
   0.39496550  0.20472547  0.84777479
   0.41436247  0.50059863  0.86051231
   0.41830203  0.84936509  0.87287467
   0.74417179  0.18566765  0.87605907
   0.74041685  0.50756282  0.86086972
   0.71861725  0.86624549  0.84499533
   0.24653084  0.50580847  0.16338942
   0.25224173  0.84021306  0.14798813
   0.57799721  0.17577637  0.14062658
   0.58920480  0.52459101  0.13824914
   0.58589264  0.84329860  0.13864005
   0.92494126  0.50254489  0.14717479
   0.76098483  0.66556311  0.34402288
 
 position of ions in cartesian coordinates  (Angst):
   0.74955435  0.20404859  1.09841291
   3.02801543 10.83509066  4.16277012
   7.25510433  2.50456530  4.03578936
   6.98701023  6.64124059  4.13254056
   6.88814415 10.88938594  3.94751961
  11.22065000  2.37282701  4.26079253
  11.18045141  6.50043843  4.01116325
  11.09402731 10.63596808  3.96450693
   1.02090074  1.70177430  7.04408289
   0.80370717  5.91557371  6.82950196
   0.64487393 10.35952875  7.01423818
   4.89081452  1.88203647  6.83919657
   4.62887196  6.22968228  6.94924926
   5.36472379 10.21488239  7.15963858
   8.89935040  2.03294592  7.05788201
   9.36462586  5.94450290  6.93929778
   2.88204662  6.74738225  4.25285647
   2.85628795  2.19262535  4.11990720
   9.09817132 10.28784105  6.88674746
  11.14543910  8.23890403  9.51211010
  10.85002346  0.21632223  9.56919591
   0.76110483  4.25368636  1.55102100
   1.09357565  8.96951782  1.37083843
   5.20266037  0.55057524  1.49100391
   4.76221925  4.59819572  1.58819538
   9.12680587  0.51421788  1.46592751
   9.28205744  4.69339230  1.42965701
   5.01429296  8.68964454  1.28466475
   2.60485437  4.08311120  9.83646267
   2.44833210  8.31249848  9.66082678
   3.07498326 12.25921791 10.00995294
   6.69345078  4.23702577  9.71164444
   7.18747451  7.93920537  9.51140937
   6.87570557  0.02785719  9.78472815
  11.18137983  3.86421728  9.74378252
   9.04607511  8.47091510  1.40085934
  11.46902645  0.10038250  7.10990375
   2.74828006  4.33076374  7.27875906
   3.32419501  8.38617390  7.22475750
   7.00384186  0.24489116  7.25811602
   7.49811528  4.14685760  7.14215672
   7.30539244  8.47500180  6.93184192
  11.39301879  4.16143070  7.13690704
   9.17686561 12.45626360  4.06379792
   1.15387933  0.09726773  3.70189895
   1.09103820  4.12197353  4.05593353
   1.14453796  8.68036878  3.96310634
   5.10499762  0.26554277  4.01137111
   5.41590916  4.30998074  4.01072950
   5.03285564  8.33158062  3.96552141
   3.12818436  0.11730519  7.40713598
  11.10096920  8.60781695  7.03221324
  11.48303123 10.69689850  1.44925944
   3.25829238  2.47476660  1.65436991
  11.40147037  1.95933791  1.64790320
   9.20037792  4.21284483  3.96411417
   0.82217634  2.27714271  9.53352263
   0.73043197  6.56955351  9.28189571
   1.04276549 10.51960544  9.44376894
   4.90929971  2.56351468  9.39658069
   5.15039791  6.26835354  9.53776141
   5.19936498 10.63550733  9.67478411
   9.24982878  2.32487776  9.71007762
   9.20315572  6.35555678  9.54172212
   8.93219285 10.84687850  9.36577377
   3.06430313  6.33358870  1.81097875
   3.13528747 10.52090717  1.64027409
   7.18433080  2.20102090  1.55867826
   7.32363739  6.56877798  1.53232760
   7.28246792 10.55954304  1.53666085
  11.49674052  6.29272234  1.63125701
   9.45881068  8.33399037  3.81308603
 


--------------------------------------------------------------------------------------------------------


 k-point   1 :   0.0000 0.0000 0.0000  plane waves:   46417
 k-point   2 :   0.5000 0.0000 0.0000  plane waves:   46482
 k-point   3 :   0.0000 0.5000 0.0000  plane waves:   46390
 k-point   4 :   0.5000 0.5000 0.0000  plane waves:   46488
 k-point   5 :   0.0000 0.0000 0.5000  plane waves:   46534
 k-point   6 :   0.5000 0.0000 0.5000  plane waves:   46420
 k-point   7 :   0.0000 0.5000 0.5000  plane waves:   46492
 k-point   8 :   0.5000 0.5000 0.5000  plane waves:   46432

 maximum and minimum number of plane-waves per node :      5848     5777

 maximum number of plane-waves:     46534
 maximum index in each direction: 
   IXMAX=   23   IYMAX=   23   IZMAX=   20
   IXMIN=  -23   IYMIN=  -23   IZMIN=  -21


 parallel 3D FFT for wavefunctions:
    minimum data exchange during FFTs selected (reduces bandwidth)
 parallel 3D FFT for charge:
    minimum data exchange during FFTs selected (reduces bandwidth)


 total amount of memory used by VASP MPI-rank0   111085. kBytes
=======================================================================

   base      :      30000. kBytes
   nonl-proj :      16445. kBytes
   fftplans  :       6180. kBytes
   grid      :      15593. kBytes
   one-center:        146. kBytes
   wavefun   :      42721. kBytes
 
     INWAV:  cpu time      0.0000: real time      0.0001
 Broyden mixing: mesh for mixing (old mesh)
   NGX = 47   NGY = 47   NGZ = 41
  (NGX  =192   NGY  =192   NGZ  =168)
  gives a total of  90569 points

 initial charge density was supplied:
 charge density of overlapping atoms calculated
 number of electron     360.0000000 magnetization      72.0000000
 keeping initial charge density in first step


--------------------------------------------------------------------------------------------------------


 Maximum index for augmentation-charges           812 (set IRDMAX)


--------------------------------------------------------------------------------------------------------


 First call to EWALD:  gamma=   0.148
 Maximum number of real-space cells 3x 3x 3
 Maximum number of reciprocal cells 3x 3x 3

    FEWALD:  cpu time      0.0082: real time      0.0083


--------------------------------------- Ionic step        1  -------------------------------------------




--------------------------------------- Iteration      1(   1)  ---------------------------------------


    POTLOK:  cpu time      0.1396: real time      0.1408
    SETDIJ:  cpu time      0.6146: real time      0.6161
     EDDAV:  cpu time      8.6971: real time      8.7388
       DOS:  cpu time      0.0015: real time      0.0015
    --------------------------------------------
      LOOP:  cpu time      9.4528: real time      9.4972

 eigenvalue-minimisations  :  7168
 total energy-change (2. order) : 0.1820379E+04  (-0.1417181E+05)
 number of electron     360.0000000 magnetization      72.0000000
 augmentation part      360.0000000 magnetization      72.0000000

 Free energy of the ion-electron system (eV)
  ---------------------------------------------------
  alpha Z        PSCENC =       795.60704992
  Ewald energy   TEWEN  =    -12821.52027002
  -Hartree energ DENC   =     -1140.98359255
  -exchange      EXHF   =         0.00000000
  -V(xc)+E(xc)   XCENC  =      -293.35587024
  PAW double counting   =     10738.42099860    -9719.93139476
  entropy T*S    EENTRO =        -0.02416618
  eigenvalues    EBANDS =      1225.71482396
  atomic energy  EATOM  =     13036.45147835
  Solvation  Ediel_sol  =         0.00000000
  ---------------------------------------------------
  free energy    TOTEN  =      1820.37905708 eV

  energy without entropy =     1820.40322326  energy(sigma->0) =     1820.39114017


--------------------------------------------------------------------------------------------------------




--------------------------------------- Iteration      1(   2)  ---------------------------------------


     EDDAV:  cpu time      9.8210: real time      9.8720
       DOS:  cpu time      0.0013: real time      0.0013
    --------------------------------------------
      LOOP:  cpu time      9.8223: real time      9.8733

 eigenvalue-minimisations  :  8480
 total energy-change (2. order) :-0.1884580E+04  (-0.1810048E+04)
 number of electron     360.0000000 magnetization      72.0000000
 augmentation part      360.0000000 magnetization      72.0000000

 Free energy of the ion-electron system (eV)
  ---------------------------------------------------
  alpha Z        PSCENC =       795.60704992
  Ewald energy   TEWEN  =    -12821.52027002
  -Hartree energ DENC   =     -1140.98359255
  -exchange      EXHF   =         0.00000000
  -V(xc)+E(xc)   XCENC  =      -293.35587024
  PAW double counting   =     10738.42099860    -9719.93139476
  entropy T*S    EENTRO =        -0.01464136
  eigenvalues    EBANDS =      -658.87505187
  atomic energy  EATOM  =     13036.45147835
  Solvation  Ediel_sol  =         0.00000000
  ---------------------------------------------------
  free energy    TOTEN  =       -64.20129393 eV

  energy without entropy =      -64.18665257  energy(sigma->0) =      -64.19397325


--------------------------------------------------------------------------------------------------------




--------------------------------------- Iteration      1(   3)  ---------------------------------------


     EDDAV:  cpu time      9.8989: real time      9.9470
       DOS:  cpu time      0.0010: real time      0.0010
    --------------------------------------------
      LOOP:  cpu time      9.8999: real time      9.9481

 eigenvalue-minimisations  :  8592
 total energy-change (2. order) :-0.2176129E+03  (-0.2117969E+03)
 number of electron     360.0000000 magnetization      72.0000000
 augmentation part      360.0000000 magnetization      72.0000000

 Free energy of the ion-electron system (eV)
  ---------------------------------------------------
  alpha Z        PSCENC =       795.60704992
  Ewald energy   TEWEN  =    -12821.52027002
  -Hartree energ DENC   =     -1140.98359255
  -exchange      EXHF   =         0.00000000
  -V(xc)+E(xc)   XCENC  =      -293.35587024
  PAW double counting   =     10738.42099860    -9719.93139476
  entropy T*S    EENTRO =        -0.00000122
  eigenvalues    EBANDS =      -876.50258770
  atomic energy  EATOM  =     13036.45147835
  Solvation  Ediel_sol  =         0.00000000
  ---------------------------------------------------
  free energy    TOTEN  =      -281.81418962 eV

  energy without entropy =     -281.81418840  energy(sigma->0) =     -281.81418901


--------------------------------------------------------------------------------------------------------




--------------------------------------- Iteration      1(   4)  ---------------------------------------


     EDDAV:  cpu time     10.0360: real time     10.0840
       DOS:  cpu time      0.0013: real time      0.0013
    --------------------------------------------
      LOOP:  cpu time     10.0372: real time     10.0853

 eigenvalue-minimisations  :  8696
 total energy-change (2. order) :-0.7906119E+01  (-0.7814898E+01)
 number of electron     360.0000000 magnetization      72.0000000
 augmentation part      360.0000000 magnetization      72.0000000

 Free energy of the ion-electron system (eV)
  ---------------------------------------------------
  alpha Z        PSCENC =       795.60704992
  Ewald energy   TEWEN  =    -12821.52027002
  -Hartree energ DENC   =     -1140.98359255
  -exchange      EXHF   =         0.00000000
  -V(xc)+E(xc)   XCENC  =      -293.35587024
  PAW double counting   =     10738.42099860    -9719.93139476
  entropy T*S    EENTRO =        -0.00000023
  eigenvalues    EBANDS =      -884.40870791
  atomic energy  EATOM  =     13036.45147835
  Solvation  Ediel_sol  =         0.00000000
  ---------------------------------------------------
  free energy    TOTEN  =      -289.72030884 eV

  energy without entropy =     -289.72030861  energy(sigma->0) =     -289.72030872


--------------------------------------------------------------------------------------------------------




--------------------------------------- Iteration      1(   5)  ---------------------------------------


     EDDAV:  cpu time     10.3723: real time     10.4232
       DOS:  cpu time      0.0009: real time      0.0009
    CHARGE:  cpu time      0.4375: real time      0.4394
    MIXING:  cpu time      0.0083: real time      0.0084
    --------------------------------------------
      LOOP:  cpu time     10.8190: real time     10.8720

 eigenvalue-minimisations  :  9120
 total energy-change (2. order) :-0.2994177E+00  (-0.2986004E+00)
 number of electron     359.9999996 magnetization      48.8284832
 augmentation part      -66.8020512 magnetization      49.0405006

 Broyden mixing:
  rms(total) = 0.29333E+01    rms(broyden)= 0.29333E+01
  rms(prec ) = 0.30847E+01
  weight for this iteration     100.00

 Free energy of the ion-electron system (eV)
  ---------------------------------------------------
  alpha Z        PSCENC =       795.60704992
  Ewald energy   TEWEN  =    -12821.52027002
  -Hartree energ DENC   =     -1140.98359255
  -exchange      EXHF   =         0.00000000
  -V(xc)+E(xc)   XCENC  =      -293.35587024
  PAW double counting   =     10738.42099860    -9719.93139476
  entropy T*S    EENTRO =        -0.00000029
  eigenvalues    EBANDS =      -884.70812551
  atomic energy  EATOM  =     13036.45147835
  Solvation  Ediel_sol  =         0.00000000
  ---------------------------------------------------
  free energy    TOTEN  =      -290.01972650 eV

  energy without entropy =     -290.01972621  energy(sigma->0) =     -290.01972635


--------------------------------------------------------------------------------------------------------




--------------------------------------- Iteration      1(   6)  ---------------------------------------


    POTLOK:  cpu time      0.1353: real time      0.1367
    SETDIJ:  cpu time      0.6135: real time      0.6156
     EDDAV:  cpu time      9.3931: real time      9.4393
       DOS:  cpu time      0.0013: real time      0.0013
    CHARGE:  cpu time      0.4288: real time      0.4304
    MIXING:  cpu time      0.0072: real time      0.0073
    --------------------------------------------
      LOOP:  cpu time     10.5793: real time     10.6305

 eigenvalue-minimisations  :  7936
 total energy-change (2. order) : 0.3291296E+00  (-0.2610593E+01)
 number of electron     359.9999996 magnetization      27.8446642
 augmentation part      -66.1921779 magnetization      29.0270066

 Broyden mixing:
  rms(total) = 0.17382E+01    rms(broyden)= 0.17382E+01
  rms(prec ) = 0.17758E+01
  weight for this iteration     100.00

 eigenvalues of (default mixing * dielectric matrix)
  average eigenvalue GAMMA=   1.0108
  1.0108

 Free energy of the ion-electron system (eV)
  ---------------------------------------------------
  alpha Z        PSCENC =       795.60704992
  Ewald energy   TEWEN  =    -12821.52027002
  -Hartree energ DENC   =     -1194.36107553
  -exchange      EXHF   =         0.00000000
  -V(xc)+E(xc)   XCENC  =      -286.71252901
  PAW double counting   =     13069.71032324   -12054.80820680
  entropy T*S    EENTRO =        -0.00000009
  eigenvalues    EBANDS =      -834.05736691
  atomic energy  EATOM  =     13036.45147835
  Solvation  Ediel_sol  =         0.00000000
  ---------------------------------------------------
  free energy    TOTEN  =      -289.69059685 eV

  energy without entropy =     -289.69059676  energy(sigma->0) =     -289.69059680


--------------------------------------------------------------------------------------------------------




--------------------------------------- Iteration      1(   7)  ---------------------------------------


    POTLOK:  cpu time      0.1315: real time      0.1324
    SETDIJ:  cpu time      0.6123: real time      0.6139
     EDDAV:  cpu time      9.5054: real time      9.5512
       DOS:  cpu time      0.0012: real time      0.0012
    CHARGE:  cpu time      0.4200: real time      0.4216
    MIXING:  cpu time      0.0079: real time      0.0080
    --------------------------------------------
      LOOP:  cpu time     10.6784: real time     10.7283

 eigenvalue-minimisations  :  8040
 total energy-change (2. order) :-0.7426736E+01  (-0.8557230E+00)
 number of electron     359.9999996 magnetization       9.0006795
 augmentation part      -66.1694359 magnetization       9.6722745

 Broyden mixing:
  rms(total) = 0.91144E+00    rms(broyden)= 0.91144E+00
  rms(prec ) = 0.92784E+00
  weight for this iteration     100.00

 eigenvalues of (default mixing * dielectric matrix)
  average eigenvalue GAMMA=   1.4679
  0.8626  2.0732

 Free energy of the ion-electron system (eV)
  ---------------------------------------------------
  alpha Z        PSCENC =       795.60704992
  Ewald energy   TEWEN  =    -12821.52027002
  -Hartree energ DENC   =     -1212.01012184
  -exchange      EXHF   =         0.00000000
  -V(xc)+E(xc)   XCENC  =      -289.57015725
  PAW double counting   =     15223.63062690   -14210.43341360
  entropy T*S    EENTRO =        -0.00000000
  eigenvalues    EBANDS =      -819.27252549
  atomic energy  EATOM  =     13036.45147835
  Solvation  Ediel_sol  =         0.00000000
  ---------------------------------------------------
  free energy    TOTEN  =      -297.11733303 eV

  energy without entropy =     -297.11733303  energy(sigma->0) =     -297.11733303


--------------------------------------------------------------------------------------------------------




--------------------------------------- Iteration      1(   8)  ---------------------------------------


    POTLOK:  cpu time      0.1306: real time      0.1313
    SETDIJ:  cpu time      0.6130: real time      0.6152
     EDDAV:  cpu time      9.6028: real time      9.6497
       DOS:  cpu time      0.0008: real time      0.0008
    CHARGE:  cpu time      0.4330: real time      0.4349
    MIXING:  cpu time      0.0076: real time      0.0076
    --------------------------------------------
      LOOP:  cpu time     10.7878: real time     10.8395

 eigenvalue-minimisations  :  8192
 total energy-change (2. order) :-0.3205295E+01  (-0.1768927E+00)
 number of electron     359.9999996 magnetization       4.3251789
 augmentation part      -66.1729093 magnetization       4.6258916

 Broyden mixing:
  rms(total) = 0.32215E+00    rms(broyden)= 0.32215E+00
  rms(prec ) = 0.32760E+00
  weight for this iteration     100.00

 eigenvalues of (default mixing * dielectric matrix)
  average eigenvalue GAMMA=   1.3644
  2.5078  0.9265  0.6588

 Free energy of the ion-electron system (eV)
  ---------------------------------------------------
  alpha Z        PSCENC =       795.60704992
  Ewald energy   TEWEN  =    -12821.52027002
  -Hartree energ DENC   =     -1217.36082114
  -exchange      EXHF   =         0.00000000
  -V(xc)+E(xc)   XCENC  =      -289.17699733
  PAW double counting   =     17063.31191000   -16051.11590004
  entropy T*S    EENTRO =        -0.00000000
  eigenvalues    EBANDS =      -816.51907764
  atomic energy  EATOM  =     13036.45147835
  Solvation  Ediel_sol  =         0.00000000
  ---------------------------------------------------
  free energy    TOTEN  =      -300.32262790 eV

  energy without entropy =     -300.32262790  energy(sigma->0) =     -300.32262790


--------------------------------------------------------------------------------------------------------




--------------------------------------- Iteration      1(   9)  ---------------------------------------


    POTLOK:  cpu time      0.1310: real time      0.1316
    SETDIJ:  cpu time      0.6121: real time      0.6139
     EDDAV:  cpu time     10.4435: real time     10.4978
       DOS:  cpu time      0.0010: real time      0.0010
    CHARGE:  cpu time      0.4387: real time      0.4405
    MIXING:  cpu time      0.0079: real time      0.0080
    --------------------------------------------
      LOOP:  cpu time     11.6342: real time     11.6928

 eigenvalue-minimisations  :  9088
 total energy-change (2. order) :-0.3579288E+00  (-0.4067987E-01)
 number of electron     359.9999996 magnetization       2.3066465
 augmentation part      -66.2095132 magnetization       2.4572380

 Broyden mixing:
  rms(total) = 0.14768E+00    rms(broyden)= 0.14768E+00
  rms(prec ) = 0.14935E+00
  weight for this iteration     100.00

 eigenvalues of (default mixing * dielectric matrix)
  average eigenvalue GAMMA=   1.3285
  2.6332  1.2284  0.8320  0.6206

 Free energy of the ion-electron system (eV)
  ---------------------------------------------------
  alpha Z        PSCENC =       795.60704992
  Ewald energy   TEWEN  =    -12821.52027002
  -Hartree energ DENC   =     -1216.42593100
  -exchange      EXHF   =         0.00000000
  -V(xc)+E(xc)   XCENC  =      -289.20893976
  PAW double counting   =     17341.68380418   -16329.82391582
  entropy T*S    EENTRO =        -0.00000000
  eigenvalues    EBANDS =      -817.44383256
  atomic energy  EATOM  =     13036.45147835
  Solvation  Ediel_sol  =         0.00000000
  ---------------------------------------------------
  free energy    TOTEN  =      -300.68055670 eV

  energy without entropy =     -300.68055670  energy(sigma->0) =     -300.68055670


--------------------------------------------------------------------------------------------------------




--------------------------------------- Iteration      1(  10)  ---------------------------------------


    POTLOK:  cpu time      0.1311: real time      0.1318
    SETDIJ:  cpu time      0.6125: real time      0.6140
     EDDAV:  cpu time      9.4855: real time      9.5404
       DOS:  cpu time      0.0008: real time      0.0008
    CHARGE:  cpu time      0.4343: real time      0.4358
    MIXING:  cpu time      0.0077: real time      0.0078
    --------------------------------------------
      LOOP:  cpu time     10.6720: real time     10.7306

 eigenvalue-minimisations  :  8088
 total energy-change (2. order) :-0.9901630E-01  (-0.8960778E-02)
 number of electron     359.9999996 magnetization       0.7462956
 augmentation part      -66.2105029 magnetization       0.8140964

 Broyden mixing:
  rms(total) = 0.73500E-01    rms(broyden)= 0.73499E-01
  rms(prec ) = 0.74602E-01
  weight for this iteration     100.00

 eigenvalues of (default mixing * dielectric matrix)
  average eigenvalue GAMMA=   1.3790
  2.6995  1.7766  0.9711  0.8216  0.6262

 Free energy of the ion-electron system (eV)
  ---------------------------------------------------
  alpha Z        PSCENC =       795.60704992
  Ewald energy   TEWEN  =    -12821.52027002
  -Hartree energ DENC   =     -1216.67235397
  -exchange      EXHF   =         0.00000000
  -V(xc)+E(xc)   XCENC  =      -289.20201438
  PAW double counting   =     17346.92344484   -16335.07557795
  entropy T*S    EENTRO =        -0.00000000
  eigenvalues    EBANDS =      -817.29132978
  atomic energy  EATOM  =     13036.45147835
  Solvation  Ediel_sol  =         0.00000000
  ---------------------------------------------------
  free energy    TOTEN  =      -300.77957300 eV

  energy without entropy =     -300.77957300  energy(sigma->0) =     -300.77957300


--------------------------------------------------------------------------------------------------------




--------------------------------------- Iteration      1(  11)  ---------------------------------------


    POTLOK:  cpu time      0.1319: real time      0.1326
    SETDIJ:  cpu time      0.6142: real time      0.6160
     EDDAV:  cpu time     10.2507: real time     10.3029
       DOS:  cpu time      0.0009: real time      0.0009
    CHARGE:  cpu time      0.4192: real time      0.4210
    MIXING:  cpu time      0.0078: real time      0.0080
    --------------------------------------------
      LOOP:  cpu time     11.4247: real time     11.4814

 eigenvalue-minimisations  :  8840
 total energy-change (2. order) :-0.3202420E-01  (-0.3600297E-02)
 number of electron     359.9999996 magnetization       0.1821169
 augmentation part      -66.1961752 magnetization       0.2009853

 Broyden mixing:
  rms(total) = 0.28387E-01    rms(broyden)= 0.28387E-01
  rms(prec ) = 0.28789E-01
  weight for this iteration     100.00

 eigenvalues of (default mixing * dielectric matrix)
  average eigenvalue GAMMA=   1.4043
  2.9018  2.1758  1.1667  0.8572  0.6996  0.6246

 Free energy of the ion-electron system (eV)
  ---------------------------------------------------
  alpha Z        PSCENC =       795.60704992
  Ewald energy   TEWEN  =    -12821.52027002
  -Hartree energ DENC   =     -1217.79605934
  -exchange      EXHF   =         0.00000000
  -V(xc)+E(xc)   XCENC  =      -289.15717202
  PAW double counting   =     17270.52034850   -16258.64310638
  entropy T*S    EENTRO =        -0.00000000
  eigenvalues    EBANDS =      -816.27386621
  atomic energy  EATOM  =     13036.45147835
  Solvation  Ediel_sol  =         0.00000000
  ---------------------------------------------------
  free energy    TOTEN  =      -300.81159721 eV

  energy without entropy =     -300.81159721  energy(sigma->0) =     -300.81159721


--------------------------------------------------------------------------------------------------------




--------------------------------------- Iteration      1(  12)  ---------------------------------------


    POTLOK:  cpu time      0.1308: real time      0.1321
    SETDIJ:  cpu time      0.6137: real time      0.6158
     EDDAV:  cpu time      9.9751: real time     10.0275
       DOS:  cpu time      0.0007: real time      0.0008
    CHARGE:  cpu time      0.4345: real time      0.4361
    MIXING:  cpu time      0.0077: real time      0.0078
    --------------------------------------------
      LOOP:  cpu time     11.1625: real time     11.2201

 eigenvalue-minimisations  :  8552
 total energy-change (2. order) :-0.3417980E-02  (-0.4663447E-03)
 number of electron     359.9999996 magnetization       0.0663185
 augmentation part      -66.1960871 magnetization       0.0707689

 Broyden mixing:
  rms(total) = 0.10882E-01    rms(broyden)= 0.10882E-01
  rms(prec ) = 0.11478E-01
  weight for this iteration     100.00

 eigenvalues of (default mixing * dielectric matrix)
  average eigenvalue GAMMA=   1.3659
  3.0049  2.3239  1.2117  0.8809  0.8809  0.6071  0.6516

 Free energy of the ion-electron system (eV)
  ---------------------------------------------------
  alpha Z        PSCENC =       795.60704992
  Ewald energy   TEWEN  =    -12821.52027002
  -Hartree energ DENC   =     -1217.89497648
  -exchange      EXHF   =         0.00000000
  -V(xc)+E(xc)   XCENC  =      -289.15739954
  PAW double counting   =     17235.65125717   -16223.75116383
  entropy T*S    EENTRO =        -0.00000000
  eigenvalues    EBANDS =      -816.20099076
  atomic energy  EATOM  =     13036.45147835
  Solvation  Ediel_sol  =         0.00000000
  ---------------------------------------------------
  free energy    TOTEN  =      -300.81501519 eV

  energy without entropy =     -300.81501519  energy(sigma->0) =     -300.81501519


--------------------------------------------------------------------------------------------------------




--------------------------------------- Iteration      1(  13)  ---------------------------------------


    POTLOK:  cpu time      0.1301: real time      0.1308
    SETDIJ:  cpu time      0.5916: real time      0.6156
     EDDAV:  cpu time     11.1185: real time     11.1731
       DOS:  cpu time      0.0013: real time      0.0013
    CHARGE:  cpu time      0.4340: real time      0.4356
    MIXING:  cpu time      0.0080: real time      0.0080
    --------------------------------------------
      LOOP:  cpu time     12.2834: real time     12.3645

 eigenvalue-minimisations  :  9832
 total energy-change (2. order) :-0.1184605E-03  (-0.5260804E-04)
 number of electron     359.9999996 magnetization       0.0179440
 augmentation part      -66.1975538 magnetization       0.0190099

 Broyden mixing:
  rms(total) = 0.48581E-02    rms(broyden)= 0.48581E-02
  rms(prec ) = 0.50596E-02
  weight for this iteration     100.00

 eigenvalues of (default mixing * dielectric matrix)
  average eigenvalue GAMMA=   1.3548
  3.0496  2.4327  1.1485  1.1485  0.9442  0.8596  0.6476  0.6074

 Free energy of the ion-electron system (eV)
  ---------------------------------------------------
  alpha Z        PSCENC =       795.60704992
  Ewald energy   TEWEN  =    -12821.52027002
  -Hartree energ DENC   =     -1217.78994099
  -exchange      EXHF   =         0.00000000
  -V(xc)+E(xc)   XCENC  =      -289.16745394
  PAW double counting   =     17222.67825751   -16210.76728040
  entropy T*S    EENTRO =        -0.00000000
  eigenvalues    EBANDS =      -816.30697408
  atomic energy  EATOM  =     13036.45147835
  Solvation  Ediel_sol  =         0.00000000
  ---------------------------------------------------
  free energy    TOTEN  =      -300.81513365 eV

  energy without entropy =     -300.81513365  energy(sigma->0) =     -300.81513365


--------------------------------------------------------------------------------------------------------




--------------------------------------- Iteration      1(  14)  ---------------------------------------


    POTLOK:  cpu time      0.1325: real time      0.1334
    SETDIJ:  cpu time      0.6110: real time      0.6131
     EDDAV:  cpu time      9.7425: real time      9.7993
       DOS:  cpu time      0.0007: real time      0.0007
    CHARGE:  cpu time      0.4383: real time      0.4399
    MIXING:  cpu time      0.0079: real time      0.0079
    --------------------------------------------
      LOOP:  cpu time     10.9329: real time     10.9943

 eigenvalue-minimisations  :  8336
 total energy-change (2. order) :-0.1836888E-04  (-0.1008961E-04)
 number of electron     359.9999996 magnetization       0.0048343
 augmentation part      -66.1972821 magnetization       0.0052654

 Broyden mixing:
  rms(total) = 0.17319E-02    rms(broyden)= 0.17319E-02
  rms(prec ) = 0.18276E-02
  weight for this iteration     100.00

 eigenvalues of (default mixing * dielectric matrix)
  average eigenvalue GAMMA=   1.3471
  3.0828  2.4707  1.5650  1.2099  0.8777  0.8777  0.7877  0.6102  0.6420

 Free energy of the ion-electron system (eV)
  ---------------------------------------------------
  alpha Z        PSCENC =       795.60704992
  Ewald energy   TEWEN  =    -12821.52027002
  -Hartree energ DENC   =     -1217.78615319
  -exchange      EXHF   =         0.00000000
  -V(xc)+E(xc)   XCENC  =      -289.16888033
  PAW double counting   =     17217.33340035   -16205.41887882
  entropy T*S    EENTRO =        -0.00000000
  eigenvalues    EBANDS =      -816.31289827
  atomic energy  EATOM  =     13036.45147835
  Solvation  Ediel_sol  =         0.00000000
  ---------------------------------------------------
  free energy    TOTEN  =      -300.81515202 eV

  energy without entropy =     -300.81515202  energy(sigma->0) =     -300.81515202


--------------------------------------------------------------------------------------------------------




--------------------------------------- Iteration      1(  15)  ---------------------------------------


    POTLOK:  cpu time      0.1299: real time      0.1309
    SETDIJ:  cpu time      0.6149: real time      0.6171
     EDDAV:  cpu time      9.9920: real time     10.0477
       DOS:  cpu time      0.0009: real time      0.0009
    CHARGE:  cpu time      0.4317: real time      0.4345
    MIXING:  cpu time      0.0082: real time      0.0082
    --------------------------------------------
      LOOP:  cpu time     11.1775: real time     11.2392

 eigenvalue-minimisations  :  8560
 total energy-change (2. order) :-0.4413075E-05  (-0.1861867E-05)
 number of electron     359.9999996 magnetization       0.0018341
 augmentation part      -66.1973888 magnetization       0.0020552

 Broyden mixing:
  rms(total) = 0.73499E-03    rms(broyden)= 0.73499E-03
  rms(prec ) = 0.77983E-03
  weight for this iteration     100.00

 eigenvalues of (default mixing * dielectric matrix)
  average eigenvalue GAMMA=   1.3081
  3.0949  2.4308  1.7149  1.0925  0.9847  0.9847  0.8234  0.7156  0.6199  0.6199

 Free energy of the ion-electron system (eV)
  ---------------------------------------------------
  alpha Z        PSCENC =       795.60704992
  Ewald energy   TEWEN  =    -12821.52027002
  -Hartree energ DENC   =     -1217.77825019
  -exchange      EXHF   =         0.00000000
  -V(xc)+E(xc)   XCENC  =      -289.16895060
  PAW double counting   =     17216.90237406   -16204.98722243
  entropy T*S    EENTRO =        -0.00000000
  eigenvalues    EBANDS =      -816.32136550
  atomic energy  EATOM  =     13036.45147835
  Solvation  Ediel_sol  =         0.00000000
  ---------------------------------------------------
  free energy    TOTEN  =      -300.81515643 eV

  energy without entropy =     -300.81515643  energy(sigma->0) =     -300.81515643


--------------------------------------------------------------------------------------------------------




--------------------------------------- Iteration      1(  16)  ---------------------------------------


    POTLOK:  cpu time      0.1301: real time      0.1309
    SETDIJ:  cpu time      0.6151: real time      0.6171
     EDDAV:  cpu time      6.7508: real time      6.7863
       DOS:  cpu time      0.0008: real time      0.0008
    --------------------------------------------
      LOOP:  cpu time      7.4968: real time      7.5352

 eigenvalue-minimisations  :  4880
 total energy-change (2. order) :-0.7618846E-06  (-0.1606378E-06)
 number of electron     359.9999996 magnetization       0.0018341
 augmentation part      -66.1973888 magnetization       0.0020552

 Free energy of the ion-electron system (eV)
  ---------------------------------------------------
  alpha Z        PSCENC =       795.60704992
  Ewald energy   TEWEN  =    -12821.52027002
  -Hartree energ DENC   =     -1217.77618306
  -exchange      EXHF   =         0.00000000
  -V(xc)+E(xc)   XCENC  =      -289.16898644
  PAW double counting   =     17216.92305505   -16205.00780340
  entropy T*S    EENTRO =        -0.00000000
  eigenvalues    EBANDS =      -816.32349759
  atomic energy  EATOM  =     13036.45147835
  Solvation  Ediel_sol  =         0.00000000
  ---------------------------------------------------
  free energy    TOTEN  =      -300.81515719 eV

  energy without entropy =     -300.81515719  energy(sigma->0) =     -300.81515719


--------------------------------------------------------------------------------------------------------




 average (electrostatic) potential at core
  the test charge radii are     1.1631  1.0808
  (the norm of the test charge is              1.0000)
       1 -33.5917       2 -33.4537       3 -33.3467       4 -33.4835       5 -33.3554
       6 -33.8384       7 -33.5253       8 -33.4927       9 -33.3536      10 -33.2731
      11 -33.5269      12 -33.4125      13 -33.4348      14 -33.4530      15 -33.4522
      16 -33.5041      17 -33.3608      18 -33.4073      19 -33.2838      20 -33.4429
      21 -33.4048      22 -33.6314      23 -33.4581      24 -33.5839      25 -33.1276
      26 -33.5286      27 -33.7204      28 -33.7065      29 -33.5498      30 -33.3447
      31 -33.7399      32 -33.1970      33 -33.4087      34 -33.4213      35 -33.4373
      36 -33.3726      37 -54.8521      38 -54.8892      39 -54.7691      40 -54.8993
      41 -54.6639      42 -54.9495      43 -54.8988      44 -54.7450      45 -54.7662
      46 -54.8316      47 -54.6931      48 -54.9387      49 -54.6544      50 -54.7796
      51 -54.7903      52 -54.9467      53 -54.8272      54 -54.8569      55 -55.0510
      56 -55.0361      57 -54.9785      58 -54.9922      59 -54.9586      60 -54.7453
      61 -54.7989      62 -54.9114      63 -54.9880      64 -54.8899      65 -54.6420
      66 -54.7626      67 -54.9981      68 -55.0434      69 -54.9110      70 -54.7771
      71 -55.0034      72 -54.9486
 
 
 
 E-fermi :   3.4096     XC(G=0):  -9.3557     alpha+bet : -8.8067

 Fermi energy:         3.4096404892

 spin component 1

 k-point     1 :       0.0000    0.0000    0.0000
  band No.  band energies     occupation 
      1     -10.9425      1.00000
      2     -10.6261      1.00000
      3     -10.4570      1.00000
      4     -10.4252      1.00000
      5     -10.3842      1.00000
      6     -10.2870      1.00000
      7     -10.1986      1.00000
      8     -10.0972      1.00000
      9     -10.0597      1.00000
     10     -10.0266      1.00000
     11      -9.9694      1.00000
     12      -9.9307      1.00000
     13      -9.8724      1.00000
     14      -9.8094      1.00000
     15      -9.7452      1.00000
     16      -9.7297      1.00000
     17      -9.6373      1.00000
     18      -9.6086      1.00000
     19      -9.5789      1.00000
     20      -9.5305      1.00000
     21      -9.5116      1.00000
     22      -9.4403      1.00000
     23      -9.4044      1.00000
     24      -9.3619      1.00000
     25      -9.3174      1.00000
     26      -9.2797      1.00000
     27      -9.2646      1.00000
     28      -9.2537      1.00000
     29      -9.1772      1.00000
     30      -9.1695      1.00000
     31      -9.1387      1.00000
     32      -9.1179      1.00000
     33      -9.0969      1.00000
     34      -9.0310      1.00000
     35      -9.0262      1.00000
     36      -8.9761      1.00000
     37      -5.5170      1.00000
     38      -5.3983      1.00000
     39      -5.3437      1.00000
     40      -5.2608      1.00000
     41      -5.1595      1.00000
     42      -5.0941      1.00000
     43      -5.0535      1.00000
     44      -4.9895      1.00000
     45      -4.7846      1.00000
     46      -4.7374      1.00000
     47      -4.6209      1.00000
     48      -4.5567      1.00000
     49      -4.5180      1.00000
     50      -4.5113      1.00000
     51      -4.4721      1.00000
     52      -4.4492      1.00000
     53      -4.3652      1.00000
     54      -4.3510      1.00000
     55      -4.3324      1.00000
     56      -4.2948      1.00000
     57      -4.2732      1.00000
     58      -4.2591      1.00000
     59      -4.2122      1.00000
     60      -4.1890      1.00000
     61      -4.1624      1.00000
     62      -4.0414      1.00000
     63      -3.9974      1.00000
     64      -3.9372      1.00000
     65      -3.9081      1.00000
     66      -3.8575      1.00000
     67      -3.7049      1.00000
     68      -3.6358      1.00000
     69      -3.5494      1.00000
     70      -3.4603      1.00000
     71      -2.4442      1.00000
     72      -2.3532      1.00000
     73      -1.8589      1.00000
     74      -1.6550      1.00000
     75      -1.5823      1.00000
     76      -1.5138      1.00000
     77      -1.4786      1.00000
     78      -1.4190      1.00000
     79      -1.3623      1.00000
     80      -1.2925      1.00000
     81      -1.2478      1.00000
     82      -1.1757      1.00000
     83      -1.1126      1.00000
     84      -1.1020      1.00000
     85      -0.9487      1.00000
     86      -0.8432      1.00000
     87      -0.7750      1.00000
     88      -0.7449      1.00000
     89      -0.7260      1.00000
     90      -0.6660      1.00000
     91      -0.6399      1.00000
     92      -0.6043      1.00000
     93      -0.5596      1.00000
     94      -0.2416      1.00000
     95      -0.2359      1.00000
     96      -0.1319      1.00000
     97      -0.1159      1.00000
     98      -0.0807      1.00000
     99      -0.0515      1.00000
    100      -0.0165      1.00000
    101       0.0647      1.00000
    102       0.0919      1.00000
    103       0.1768      1.00000
    104       0.1896      1.00000
    105       0.1935      1.00000
    106       0.2412      1.00000
    107       0.3033      1.00000
    108       0.3152      1.00000
    109       0.3681      1.00000
    110       0.4100      1.00000
    111       0.4255      1.00000
    112       0.5247      1.00000
    113       0.5502      1.00000
    114       0.5801      1.00000
    115       0.6069      1.00000
    116       0.6139      1.00000
    117       0.6460      1.00000
    118       0.6858      1.00000
    119       0.7232      1.00000
    120       0.7383      1.00000
    121       0.7748      1.00000
    122       0.8307      1.00000
    123       0.8453      1.00000
    124       0.8889      1.00000
    125       0.9340      1.00000
    126       0.9449      1.00000
    127       0.9731      1.00000
    128       0.9797      1.00000
    129       1.0666      1.00000
    130       1.1120      1.00000
    131       1.1299      1.00000
    132       1.1402      1.00000
    133       1.2290      1.00000
    134       1.2475      1.00000
    135       1.2746      1.00000
    136       1.3126      1.00000
    137       1.3691      1.00000
    138       1.3986      1.00000
    139       1.4668      1.00000
    140       1.4793      1.00000
    141       1.4900      1.00000
    142       1.5522      1.00000
    143       1.5759      1.00000
    144       1.6500      1.00000
    145       1.6861      1.00000
    146       1.6985      1.00000
    147       1.7285      1.00000
    148       1.7989      1.00000
    149       1.8179      1.00000
[...]
   -.376E+01 -.229E+02 -.241E+02   0.433E+01 0.258E+02 0.268E+02   -.207E+00 -.232E+01 -.289E+01   0.711E-04 -.116E-03 -.233E-03
   -.166E+02 -.133E+02 0.320E+02   0.186E+02 0.137E+02 -.353E+02   -.209E+01 -.888E-02 0.269E+01   0.233E-03 0.290E-03 0.967E-05
   0.110E+02 0.103E+02 0.362E+02   -.123E+02 -.103E+02 -.384E+02   0.118E+01 -.327E+00 0.197E+01   0.384E-04 -.156E-03 0.248E-03
   -.190E+02 0.838E+01 0.311E+02   0.196E+02 -.977E+01 -.324E+02   -.270E+00 0.171E+01 0.127E+01   0.147E-04 0.484E-03 -.352E-03
   0.138E+02 -.169E+02 0.216E+02   -.149E+02 0.177E+02 -.234E+02   0.848E+00 -.401E+00 0.172E+01   -.515E-03 -.388E-03 0.189E-03
   -.232E+01 0.108E+02 0.350E+02   0.247E+01 -.119E+02 -.366E+02   -.443E+00 0.153E+01 0.138E+01   0.163E-03 -.576E-04 -.482E-04
   0.279E+02 -.147E+02 0.225E+02   -.296E+02 0.151E+02 -.240E+02   0.125E+01 -.804E-01 0.154E+01   -.325E-03 -.401E-04 0.146E-03
   0.471E+01 0.192E+02 0.261E+02   -.491E+01 -.206E+02 -.279E+02   -.965E-01 0.109E+01 0.220E+01   0.105E-03 0.192E-03 0.763E-04
   0.476E+01 0.786E+01 0.288E+02   -.487E+01 -.929E+01 -.301E+02   -.347E+00 0.161E+01 0.146E+01   0.448E-03 0.297E-03 0.198E-03
   -.467E+01 -.196E+01 -.318E+02   0.463E+01 0.257E+01 0.337E+02   0.201E+00 -.348E+00 -.232E+01   -.278E-03 -.471E-03 0.129E-03
   0.149E+02 0.222E+01 -.360E+02   -.162E+02 -.213E+01 0.371E+02   0.145E+01 0.120E+00 -.825E+00   0.237E-03 -.151E-03 0.359E-03
   0.348E+01 -.154E+02 -.264E+02   -.359E+01 0.164E+02 0.281E+02   -.479E+00 -.116E+01 -.174E+01   0.780E-03 0.370E-03 0.411E-03
   0.198E+02 0.353E+01 -.342E+02   -.208E+02 -.313E+01 0.359E+02   0.765E+00 -.878E+00 -.176E+01   0.408E-04 -.359E-03 0.150E-03
   0.372E+01 0.381E+01 -.346E+02   -.374E+01 -.335E+01 0.363E+02   0.249E+00 -.822E+00 -.187E+01   0.183E-03 0.676E-04 -.517E-04
   0.152E+02 -.724E+01 -.404E+02   -.164E+02 0.750E+01 0.426E+02   0.114E+01 0.162E+00 -.197E+01   -.556E-03 -.997E-04 -.255E-03
   -.527E+01 -.170E+02 -.251E+02   0.523E+01 0.182E+02 0.265E+02   0.237E+00 -.979E+00 -.165E+01   -.294E-03 -.184E-03 0.444E-03
   0.509E+01 0.242E+02 0.282E+02   -.530E+01 -.259E+02 -.293E+02   -.883E-01 0.169E+01 0.106E+01   -.273E-03 0.104E-03 -.392E-03
   -.926E+01 0.105E+02 0.296E+02   0.951E+01 -.117E+02 -.315E+02   -.463E-01 0.134E+01 0.193E+01   0.316E-03 0.115E-03 0.133E-03
   0.247E+02 0.167E+02 0.304E+02   -.261E+02 -.172E+02 -.325E+02   0.160E+01 0.319E+00 0.207E+01   -.667E-04 -.498E-03 -.371E-03
   0.124E+02 0.862E+01 0.310E+02   -.133E+02 -.904E+01 -.327E+02   0.888E+00 -.179E+00 0.143E+01   0.548E-03 0.247E-03 0.132E-03
   0.549E+01 -.132E+02 0.938E+01   -.602E+01 0.143E+02 -.106E+02   0.315E+00 -.295E+00 0.138E+01   -.693E-05 -.357E-03 -.602E-03
   -.843E+01 -.100E+02 -.217E+02   0.850E+01 0.108E+02 0.235E+02   0.735E+00 -.597E+00 -.185E+01   -.344E-03 0.131E-05 0.323E-03
   -.811E+01 0.171E+02 -.257E+02   0.833E+01 -.186E+02 0.273E+02   0.230E-01 0.111E+01 -.144E+01   -.482E-04 -.177E-03 -.277E-03
   0.974E+00 0.682E+01 -.342E+02   -.132E+01 -.833E+01 0.358E+02   0.230E-01 0.116E+01 -.127E+01   0.535E-03 0.416E-03 -.189E-04
   0.151E+02 -.366E+01 -.171E+02   -.165E+02 0.418E+01 0.192E+02   0.157E+01 -.576E+00 -.130E+01   -.209E-03 -.615E-03 0.140E-03
   0.517E+01 0.121E+02 -.187E+02   -.577E+01 -.134E+02 0.198E+02   0.395E-01 0.705E+00 -.109E+01   0.220E-03 0.192E-03 0.580E-04
   0.205E+02 -.155E+02 -.222E+02   -.218E+02 0.160E+02 0.235E+02   0.144E+01 -.332E+00 -.182E+01   -.260E-03 -.181E-04 -.793E-04
   0.789E+01 0.277E+02 -.193E+02   -.794E+01 -.293E+02 0.213E+02   -.242E+00 0.136E+01 -.181E+01   0.466E-04 0.216E-05 0.546E-04
   0.216E+02 -.190E+01 -.212E+02   -.232E+02 0.190E+01 0.226E+02   0.151E+01 -.843E+00 -.197E+01   0.750E-04 -.400E-03 -.145E-03
   -.743E+01 0.258E+01 -.229E+02   0.781E+01 -.382E+01 0.244E+02   0.160E+00 0.122E+01 -.184E+01   0.100E-03 0.408E-03 -.725E-04
   -.141E+02 0.235E+02 -.310E+02   0.143E+02 -.248E+02 0.332E+02   0.299E+00 0.135E+01 -.178E+01   0.504E-03 0.145E-04 0.787E-04
   0.196E+02 -.137E+02 0.386E+02   -.207E+02 0.147E+02 -.404E+02   0.423E+00 -.669E+00 0.125E+01   0.394E-04 -.258E-03 -.318E-04
   -.972E+01 -.855E+01 0.232E+02   0.103E+02 0.998E+01 -.245E+02   -.186E+00 -.132E+01 0.953E+00   -.413E-03 -.940E-04 -.269E-03
   -.858E+00 -.189E+02 0.314E+02   0.103E+01 0.205E+02 -.334E+02   0.144E+00 -.138E+01 0.176E+01   -.464E-03 -.191E-03 0.252E-04
   0.171E+02 0.585E+01 0.232E+02   -.183E+02 -.644E+01 -.248E+02   0.128E+01 0.992E-01 0.171E+01   -.175E-03 0.128E-03 -.213E-03
   -.606E+01 0.435E+01 0.248E+02   0.601E+01 -.387E+01 -.269E+02   -.241E+00 -.882E+00 0.176E+01   0.307E-03 0.193E-03 0.919E-04
   -.155E+02 -.201E+02 0.365E+02   0.160E+02 0.213E+02 -.386E+02   -.671E+00 -.144E+01 0.131E+01   0.438E-03 0.602E-03 -.107E-03
   0.633E+01 -.139E+02 -.305E+02   -.734E+01 0.144E+02 0.327E+02   0.982E+00 0.622E-01 -.147E+01   0.128E-03 0.324E-03 -.751E-04
 -----------------------------------------------------------------------------------------------
   0.163E+02 0.123E+01 0.622E+00   0.284E-13 0.391E-13 0.149E-12   -.163E+02 -.123E+01 -.622E+00   0.142E-03 -.701E-03 -.714E-05
 
 
 POSITION                                       TOTAL-FORCE (eV/Angst)
 -----------------------------------------------------------------------------------
      0.74955      0.20405      1.09841        -0.086240     -0.208792      0.507990
      3.02802     10.83509      4.16277        -0.236811      0.069508      0.120498
      7.25510      2.50457      4.03579        -0.360593     -0.026743      0.355356
      6.98701      6.64124      4.13254        -0.211612     -0.363011     -0.107684
      6.88814     10.88939      3.94752         0.297933     -0.098445      0.594785
     11.22065      2.37283      4.26079         0.068838      0.124373     -0.195350
     11.18045      6.50044      4.01116         0.287220      0.116664      0.775250
     11.09403     10.63597      3.96451        -0.041133      0.046989      0.025915
      1.02090      1.70177      7.04408         0.226578      0.172715     -0.157497
      0.80371      5.91557      6.82950        -0.018556      0.211976     -0.416966
      0.64487     10.35953      7.01424        -0.156385      0.303967     -0.649472
      4.89081      1.88204      6.83920         0.161955      0.080715      0.270937
      4.62887      6.22968      6.94925         0.063368     -0.318797      0.336381
      5.36472     10.21488      7.15964        -0.535178     -0.097300     -0.334318
      8.89935      2.03295      7.05788         0.073761      0.043236      0.253881
      9.36463      5.94450      6.93930        -0.038118     -0.395356      0.338984
      2.88205      6.74738      4.25286        -0.024776      0.272490      0.187927
      2.85629      2.19263      4.11991        -0.281509     -0.036871      0.087031
      9.09817     10.28784      6.88675         0.062103      0.340405     -0.087441
     11.14544      8.23890      9.51211        -0.317427     -0.030171      0.391830
     10.85002      0.21632      9.56920        -0.224218     -0.511119      0.252639
      0.76110      4.25369      1.55102         0.168138      0.243549      0.106469
      1.09358      8.96952      1.37084        -0.259574     -0.174304      0.364820
      5.20266      0.55058      1.49100        -0.380881      0.147910      0.044650
      4.76222      4.59820      1.58820         0.779810     -0.474810     -0.285791
      9.12681      0.51422      1.46593        -0.012742     -0.575791      0.313948
      9.28206      4.69339      1.42966        -0.089053      0.254240     -0.063266
      5.01429      8.68964      1.28466        -0.000307      0.095334      0.467703
      2.60485      4.08311      9.83646         0.410041     -0.003167     -0.254122
      2.44833      8.31250      9.66083         0.695149      0.345954      0.200413
      3.07498     12.25922     10.00995         0.075169     -0.273926     -0.559777
      6.69345      4.23703      9.71164         0.545322      0.236556     -0.008787
      7.18747      7.93921      9.51141        -0.173172      0.295779     -0.012807
      6.87571      0.02786      9.78473         0.353437     -0.189541     -0.095189
     11.18138      3.86422      9.74378         0.356573      0.589887     -0.202098
      9.04608      8.47092      1.40086        -0.098447      0.435675     -0.629272
     11.46903      0.10038      7.10990        -0.038915     -0.341944     -0.157017
      2.74828      4.33076      7.27876         0.364856      0.325903     -0.013019
      3.32420      8.38617      7.22476        -0.268428      0.445282     -0.064945
      7.00384      0.24489      7.25812        -0.290601      0.417845     -0.283036
      7.49812      4.14686      7.14216        -0.520463      0.345057      0.024360
      7.30539      8.47500      6.93184        -0.291623     -0.293719      0.481216
     11.39302      4.16143      7.13691        -0.462299      0.181876      0.153748
      9.17687     12.45626      4.06380         0.165129      0.267623     -0.462135
      1.15388      0.09727      3.70190         0.162774      0.211277      0.209391
      1.09104      4.12197      4.05593        -0.585637     -0.148020     -0.069479
      1.14454      8.68037      3.96311        -0.182748     -0.476503     -0.115082
      5.10500      0.26554      4.01137         0.228195     -0.362478     -0.173663
      5.41591      4.30998      4.01073        -0.094475      0.425285      0.235094
      5.03286      8.33158      3.96552         0.196344      0.292754     -0.325312
      3.12818      0.11731      7.40714        -0.295932     -0.037946     -0.060918
     11.10097      8.60782      7.03221         0.204395      0.083286     -0.036446
     11.48303     10.69690      1.44926         0.181432     -0.194567     -0.057873
      3.25829      2.47477      1.65437         0.004537     -0.597984     -0.297919
     11.40147      1.95934      1.64790        -0.218534      0.766439      0.183904
      9.20038      4.21284      3.96411         0.804392      0.166856     -0.052998
      0.82218      2.27714      9.53352         0.243304     -0.430836      0.190615
      0.73043      6.56955      9.28190        -0.323689     -0.351919      0.384041
      1.04277     10.51961      9.44377         0.161956     -0.059098      0.729062
      4.90930      2.56351      9.39658        -0.564526     -0.661937     -0.036113
      5.15040      6.26835      9.53776         0.139585      0.210860     -0.456558
      5.19936     10.63551      9.67478        -0.299047     -0.228031      0.115493
      9.24983      2.32488      9.71008        -0.108175     -0.840209     -0.556759
      9.20316      6.35556      9.54172         0.541216     -0.015021     -0.392979
      8.93219     10.84688      9.36577         0.484186      0.104861      0.380975
      3.06430      6.33359      1.81098        -0.683751      0.293164     -0.488621
      3.13529     10.52091      1.64027         0.339637      0.101813     -0.367848
      7.18433      2.20102      1.55868         0.314570      0.273760     -0.221959
      7.32364      6.56878      1.53233         0.115221     -0.490208      0.120602
      7.28247     10.55954      1.53666        -0.297598     -0.398290     -0.341171
     11.49674      6.29272      1.63126        -0.172979     -0.259927     -0.821054
      9.45881      8.33399      3.81309        -0.030967      0.624920      0.706837
 -----------------------------------------------------------------------------------
    total drift:                               -0.001812     -0.000708      0.000060


--------------------------------------------------------------------------------------------------------



  FREE ENERGIE OF THE ION-ELECTRON SYSTEM (eV)
  ---------------------------------------------------
  free  energy   TOTEN  =      -300.81515719 eV

  energy  without entropy=     -300.81515719  energy(sigma->0) =     -300.81515719
 


--------------------------------------------------------------------------------------------------------


    POTLOK:  cpu time      0.7349: real time      0.7378


--------------------------------------------------------------------------------------------------------


     LOOP+:  cpu time    183.2958: real time    184.2457
    4ORBIT:  cpu time      0.0000: real time      0.0000



 total charge

# of ion       s       p       d       tot
------------------------------------------
    1        1.320   0.759   0.057   2.137
    2        1.333   0.742   0.056   2.132
    3        1.307   0.817   0.067   2.192
    4        1.334   0.735   0.052   2.120
    5        1.314   0.795   0.055   2.165
    6        1.349   0.669   0.043   2.061
    7        1.315   0.801   0.061   2.177
    8        1.325   0.748   0.051   2.124
    9        1.312   0.801   0.059   2.172
   10        1.308   0.823   0.063   2.194
   11        1.327   0.764   0.054   2.146
   12        1.325   0.756   0.053   2.134
   13        1.317   0.770   0.053   2.141
   14        1.327   0.761   0.054   2.142
   15        1.322   0.772   0.057   2.150
   16        1.322   0.753   0.052   2.127
   17        1.300   0.805   0.060   2.165
   18        1.312   0.784   0.059   2.155
   19        1.313   0.808   0.060   2.180
   20        1.328   0.768   0.055   2.151
   21        1.313   0.785   0.054   2.151
   22        1.324   0.746   0.053   2.123
   23        1.309   0.783   0.055   2.148
   24        1.313   0.779   0.058   2.149
   25        1.292   0.864   0.067   2.223
   26        1.326   0.754   0.054   2.133
   27        1.332   0.727   0.049   2.108
   28        1.346   0.680   0.046   2.071
   29        1.321   0.762   0.055   2.138
   30        1.300   0.829   0.061   2.191
   31        1.332   0.715   0.050   2.098
   32        1.314   0.810   0.062   2.186
   33        1.320   0.779   0.054   2.152
   34        1.312   0.791   0.061   2.164
   35        1.310   0.810   0.062   2.182
   36        1.316   0.802   0.061   2.178
   37        1.479   2.300   0.032   3.811
   38        1.479   2.302   0.034   3.815
   39        1.474   2.305   0.030   3.809
   40        1.478   2.302   0.033   3.813
   41        1.473   2.313   0.030   3.816
   42        1.479   2.297   0.033   3.808
   43        1.475   2.297   0.032   3.804
   44        1.480   2.270   0.028   3.778
   45        1.474   2.292   0.027   3.793
   46        1.479   2.290   0.030   3.798
   47        1.476   2.282   0.027   3.786
   48        1.480   2.297   0.034   3.811
   49        1.475   2.300   0.029   3.805
   50        1.476   2.292   0.029   3.798
   51        1.474   2.307   0.030   3.811
   52        1.479   2.309   0.034   3.821
   53        1.479   2.289   0.030   3.798
   54        1.476   2.309   0.033   3.818
   55        1.474   2.305   0.032   3.811
   56        1.476   2.298   0.033   3.807
   57        1.474   2.321   0.035   3.830
   58        1.474   2.334   0.036   3.844
   59        1.474   2.315   0.033   3.823
   60        1.473   2.314   0.030   3.816
   61        1.479   2.296   0.031   3.806
   62        1.476   2.306   0.033   3.816
   63        1.482   2.299   0.036   3.817
   64        1.477   2.295   0.032   3.803
   65        1.475   2.292   0.028   3.796
   66        1.475   2.325   0.034   3.834
   67        1.473   2.320   0.034   3.828
   68        1.478   2.319   0.038   3.834
   69        1.478   2.297   0.032   3.807
   70        1.478   2.288   0.029   3.795
   71        1.478   2.311   0.034   3.824
   72        1.476   2.326   0.036   3.837
--------------------------------------------------
tot        100.641 110.760   3.177 214.578



 magnetization (x)

# of ion       s       p       d       tot
------------------------------------------
    1       -0.000   0.000   0.000   0.000
    2       -0.000   0.000  -0.000   0.000
    3       -0.000   0.000  -0.000   0.000
    4       -0.000   0.000  -0.000   0.000
    5       -0.000   0.000  -0.000   0.000
    6       -0.000   0.000   0.000   0.000
    7       -0.000   0.000   0.000   0.000
    8       -0.000   0.000   0.000   0.000
    9       -0.000   0.000   0.000   0.000
   10       -0.000   0.000   0.000   0.000
   11       -0.000   0.000   0.000   0.000
   12       -0.000   0.000  -0.000   0.000
   13       -0.000   0.000  -0.000  -0.000
   14       -0.000   0.000  -0.000  -0.000
   15       -0.000   0.000   0.000   0.000
   16       -0.000   0.000   0.000   0.000
   17       -0.000   0.000  -0.000   0.000
   18       -0.000   0.000  -0.000   0.000
   19       -0.000   0.000  -0.000   0.000
   20       -0.000   0.000   0.000   0.000
   21       -0.000   0.000   0.000   0.000
   22       -0.000   0.000   0.000   0.000
   23       -0.000   0.000   0.000   0.000
   24       -0.000   0.000  -0.000   0.000
   25       -0.000   0.000  -0.000   0.000
   26       -0.000   0.000   0.000   0.000
   27       -0.000   0.000   0.000   0.000
   28       -0.000   0.000  -0.000  -0.000
   29       -0.000   0.000   0.000   0.000
   30       -0.000   0.000  -0.000  -0.000
   31       -0.000   0.000   0.000   0.000
   32       -0.000   0.000  -0.000   0.000
   33       -0.000   0.000  -0.000   0.000
   34       -0.000   0.000  -0.000   0.000
   35       -0.000   0.000   0.000   0.000
   36       -0.000   0.000  -0.000   0.000
   37       -0.000  -0.000   0.000  -0.000
   38       -0.000  -0.000   0.000  -0.000
   39       -0.000  -0.000  -0.000  -0.000
   40       -0.000  -0.000  -0.000  -0.000
   41       -0.000  -0.000   0.000  -0.000
   42       -0.000  -0.000  -0.000  -0.000
   43       -0.000  -0.000   0.000  -0.000
   44       -0.000  -0.000   0.000  -0.000
   45       -0.000  -0.000   0.000  -0.000
   46       -0.000  -0.000   0.000  -0.000
   47       -0.000  -0.000   0.000  -0.000
   48       -0.000  -0.000  -0.000  -0.000
   49       -0.000  -0.000   0.000  -0.000
   50       -0.000  -0.000  -0.000  -0.000
   51       -0.000  -0.000   0.000  -0.000
   52       -0.000  -0.000   0.000  -0.000
   53       -0.000  -0.000   0.000  -0.000
   54       -0.000  -0.000   0.000  -0.000
   55       -0.000  -0.000   0.000  -0.000
   56       -0.000  -0.000   0.000  -0.000
   57       -0.000  -0.000   0.000  -0.000
   58       -0.000  -0.000   0.000  -0.000
   59       -0.000  -0.000   0.000  -0.000
   60       -0.000  -0.000  -0.000  -0.000
   61       -0.000  -0.000  -0.000  -0.000
   62       -0.000  -0.000  -0.000  -0.000
   63       -0.000  -0.000   0.000  -0.000
   64       -0.000  -0.000   0.000  -0.000
   65       -0.000  -0.000   0.000  -0.000
   66       -0.000  -0.000   0.000  -0.000
   67       -0.000  -0.000  -0.000  -0.000
   68       -0.000  -0.000   0.000  -0.000
   69       -0.000  -0.000   0.000  -0.000
   70       -0.000  -0.000  -0.000  -0.000
   71       -0.000  -0.000   0.000  -0.000
   72       -0.000  -0.000   0.000  -0.000
--------------------------------------------------
tot         -0.000  -0.000   0.000  -0.000
 

 total amount of memory used by VASP MPI-rank0   111085. kBytes
=======================================================================

   base      :      30000. kBytes
   nonl-proj :      16445. kBytes
   fftplans  :       6180. kBytes
   grid      :      15593. kBytes
   one-center:        146. kBytes
   wavefun   :      42721. kBytes
 
  
  
 General timing and accounting informations for this job:
 ========================================================
  
                  Total CPU time used (sec):      194.991
                            User time (sec):      188.877
                          System time (sec):        6.115
                         Elapsed time (sec):      198.271
  
                   Maximum memory used (kb):      316368.
                   Average memory used (kb):          N/A
  
                          Minor page faults:       106624
                          Major page faults:           36
                 Voluntary context switches:        14971
