 vasp.6.4.2 20Jul23 (build Oct 12 2023 10:31:02) complex                         
 executed on              LinuxNV date 2025.05.19  04:03:34
 running  160 mpi-ranks, with    1 threads/rank, on   10 nodes
 distrk:  each k-point on   80 cores,    2 groups
 distr:  one band on NCORE=   5 cores,   16 groups


--------------------------------------------------------------------------------------------------------


 INCAR:
   ENCUT = 360.000000
   SIGMA = 0.050000
   EDIFF = 1.00e-06
   ALGO = Normal
   GGA = PE
   PREC = Normal
   SYSTEM = ./
   ICHARG = 2
   ISMEAR = 0
   ISPIN = 1
   ISTART = 0
   ISYM = 0
   KPAR = 2
   LMAXMIX = 4
   NELM = 100
   NPAR = 16
   LASPH = .TRUE.
   LCHARG = .FALSE.
   LWAVE = .FALSE.

 POTCAR:    PAW_PBE Ge 05Jan2001                  
 POTCAR:    PAW_PBE Se 06Sep2000                  
 POTCAR:    PAW_PBE Ge 05Jan2001                  
   VRHFIN =Ge: s2p2                                                                                 
   LEXCH  = PE                                                                                      
   EATOM  =   104.9960 eV,    7.7170 Ry                                                             
                                                                                                    
   TITEL  = PAW_PBE Ge 05Jan2001                                                                    
   LULTRA =        F    use ultrasoft PP ?                                                          
   IUNSCR =        1    unscreen: 0-lin 1-nonlin 2-no                                               
   RPACOR =    2.170    partial core radius                                                         
   POMASS =   72.610; ZVAL   =    4.000    mass and valenz                                          
   RCORE  =    2.300    outmost cutoff radius                                                       
   RWIGS  =    2.300; RWIGS  =    1.217    wigner-seitz radius (au A)                               
   ENMAX  =  173.807; ENMIN  =  130.355 eV                                                          
   ICORE  =        3    local potential                                                             
   LCOR   =        T    correct aug charges                                                         
   LPAW   =        T    paw PP                                                                      
   EAUG   =  385.843                                                                                
   DEXC   =    0.000                                                                                
   RMAX   =    2.342    core radius for proj-oper                                                   
   RAUG   =    1.300    factor for augmentation sphere                                              
   RDEP   =    2.318    radius for radial grids                                                     
   RDEPT  =    2.103    core radius for aug-charge                                                  
                                                                                                    
   Atomic configuration                                                                             
   10 entries                                                                                       
     n  l   j            E        occ.                                                              
     1  0  0.50    -10959.8463   2.0000                                                             
     2  0  0.50     -1371.6056   2.0000                                                             
     2  1  1.50     -1198.4791   6.0000                                                             
     3  0  0.50      -168.4733   2.0000                                                             
     3  1  1.50      -115.6019   6.0000                                                             
     3  2  2.50       -29.3106  10.0000                                                             
     4  0  0.50       -11.7309   2.0000                                                             
     4  1  0.50        -3.8952   2.0000                                                             
     4  2  1.50        -4.0817   0.0000                                                             
     4  3  2.50        -4.0817   0.0000                                                             
   Description                                                                                      
     l       E           TYP  RCUT    TYP  RCUT                                                     
     0    -11.7309493     23  2.300                                                                 
     0     -7.4578696     23  2.300                                                                 
     1     -3.8952261     23  2.300                                                                 
     1      6.1178114     23  2.300                                                                 
     2     -4.0817478     23  2.300                                                                 
     3     -1.3605826      7  2.300                                                                 
  local pseudopotential read in
  partial core-charges read in
  partial kinetic energy density read in
  atomic valenz-charges read in
  non local Contribution for L=            0  read in
    real space projection operators read in
  non local Contribution for L=            0  read in
    real space projection operators read in
  non local Contribution for L=            1  read in
    real space projection operators read in
  non local Contribution for L=            1  read in
    real space projection operators read in
  non local Contribution for L=            2  read in
    real space projection operators read in
    PAW grid and wavefunctions read in
 
   number of l-projection  operators is LMAX  =            5
   number of lm-projection operators is LMMAX =           13
 
 POTCAR:    PAW_PBE Se 06Sep2000                  
   VRHFIN =Se: s2p4                                                                                 
   LEXCH  = PE                                                                                      
   EATOM  =   257.1286 eV,   18.8984 Ry                                                             
                                                                                                    
   TITEL  = PAW_PBE Se 06Sep2000                                                                    
   LULTRA =        F    use ultrasoft PP ?                                                          
   IUNSCR =        1    unscreen: 0-lin 1-nonlin 2-no                                               
   RPACOR =    1.900    partial core radius                                                         
   POMASS =   78.960; ZVAL   =    6.000    mass and valenz                                          
   RCORE  =    2.100    outmost cutoff radius                                                       
   RWIGS  =    2.200; RWIGS  =    1.164    wigner-seitz radius (au A)                               
   ENMAX  =  211.555; ENMIN  =  158.666 eV                                                          
   ICORE  =        3    local potential                                                             
   LCOR   =        T    correct aug charges                                                         
   LPAW   =        T    paw PP                                                                      
   EAUG   =  446.842                                                                                
   DEXC   =    0.000                                                                                
   RMAX   =    2.147    core radius for proj-oper                                                   
   RAUG   =    1.300    factor for augmentation sphere                                              
   RDEP   =    2.177    radius for radial grids                                                     
   RDEPT  =    1.928    core radius for aug-charge                                                  
                                                                                                    
   Atomic configuration                                                                             
   10 entries                                                                                       
     n  l   j            E        occ.                                                              
     1  0  0.50    -12503.4787   2.0000                                                             
     2  0  0.50     -1606.9547   2.0000                                                             
     2  1  1.50     -1413.3140   6.0000                                                             
     3  0  0.50      -213.4885   2.0000                                                             
     3  1  1.50      -152.9538   6.0000                                                             
     3  2  2.50       -53.1221  10.0000                                                             
     4  0  0.50       -17.2865   2.0000                                                             
     4  1  0.50        -6.5110   4.0000                                                             
     4  2  2.50        -6.8029   0.0000                                                             
     4  3  2.50        -6.8029   0.0000                                                             
   Description                                                                                      
     l       E           TYP  RCUT    TYP  RCUT                                                     
     0    -17.2865377     23  2.100                                                                 
     0    -15.3094411     23  2.100                                                                 
     1     -6.5110275     23  2.100                                                                 
     1     -0.0695192     23  2.100                                                                 
     2     -6.8029130     23  2.100                                                                 
     3     -1.3605826      7  2.100                                                                 
  local pseudopotential read in
  partial core-charges read in
  partial kinetic energy density read in
  atomic valenz-charges read in
  non local Contribution for L=            0  read in
    real space projection operators read in
  non local Contribution for L=            0  read in
    real space projection operators read in
  non local Contribution for L=            1  read in
    real space projection operators read in
  non local Contribution for L=            1  read in
    real space projection operators read in
  non local Contribution for L=            2  read in
    real space projection operators read in
    PAW grid and wavefunctions read in
 
   number of l-projection  operators is LMAX  =            5
   number of lm-projection operators is LMMAX =           13
 
  PAW_PBE Ge 05Jan2001                  :
 energy of atom  1       EATOM= -104.9960
 kinetic energy error for atom=    0.0005 (will be added to EATOM!!)
  PAW_PBE Se 06Sep2000                  :
 energy of atom  2       EATOM= -257.1286
 kinetic energy error for atom=    0.0030 (will be added to EATOM!!)
 
 
 POSCAR: Ge Se
  positions in cartesian coordinates
  No initial velocities read in
 exchange correlation table for  LEXCH =        8
   RHO(1)=    0.500       N(1)  =     2000
   RHO(2)=  100.500       N(2)  =     4000
 


--------------------------------------------------------------------------------------------------------


 ion  position               nearest neighbor table
   1  0.467  0.821  0.132-   5 2.59   6 2.60   6 2.60
   2  0.967  0.321  0.368-   6 2.59   5 2.60   5 2.60
   3  0.750  0.904  0.868-   7 2.59   8 2.60   8 2.60
   4  0.250  0.404  0.632-   8 2.59   7 2.60   7 2.60
   5  0.467  0.704  0.351-   1 2.59   2 2.60   2 2.60
   6  0.967  0.204  0.149-   2 2.59   1 2.60   1 2.60
   7  0.750  0.021  0.649-   3 2.59   4 2.60   4 2.60
   8  0.250  0.521  0.851-   4 2.59   3 2.60   3 2.60
 

IMPORTANT INFORMATION: All symmetrisations will be switched off!
NOSYMM: (Re-)initialisation of all symmetry stuff for point group C_1.


----------------------------------------------------------------------------------------

                                     Primitive cell                                     

  volume of cell :     202.3233

  direct lattice vectors                    reciprocal lattice vectors
     3.858100176  0.000000000  0.000000000     0.259194929  0.000000000  0.000000000
     0.000000000  4.526575088  0.000000000     0.000000000  0.220917577  0.000000000
     0.000000000  0.000000000 11.585176468     0.000000000  0.000000000  0.086317200

  length of vectors
     3.858100176  4.526575088 11.585176468     0.259194929  0.220917577  0.086317200

  position of ions in fractional coordinates (direct lattice)
     0.467391308  0.820881039  0.131971745
     0.967391272  0.320881026  0.368028228
     0.749999855  0.903756548  0.868028249
     0.249999781  0.403756501  0.631971759
     0.467391291  0.704103386  0.351109927
     0.967391308  0.204103407  0.148890049
     0.749999761  0.020534152  0.648890076
     0.249999838  0.520534176  0.851109946

  ion indices of the primitive-cell ions
   primitive index   ion index
                 1           1
                 2           2
                 3           3
                 4           4
                 5           5
                 6           6
                 7           7
                 8           8

----------------------------------------------------------------------------------------

 
 
 KPOINTS: KPOINTS created by Atomic Simulation Env

Automatic generation of k-mesh.
 Grid dimensions read from file:
 generate k-points for:    6    6    2

 Generating k-lattice:

  Cartesian coordinates                     Fractional coordinates (reciprocal lattice)
     0.043199155  0.000000000  0.000000000     0.166666667  0.000000000  0.000000000
     0.000000000  0.036819596  0.000000000     0.000000000  0.166666667  0.000000000
     0.000000000  0.000000000  0.043158600     0.000000000  0.000000000  0.500000000

  Length of vectors
     0.043199155  0.036819596  0.043158600

  Shift w.r.t. Gamma in fractional coordinates (k-lattice)
     0.000000000  0.000000000  0.000000000

 
 Subroutine IBZKPT returns following result:
 ===========================================
 
 Found     40 irreducible k-points:
 
 Following reciprocal coordinates:
            Coordinates               Weight
  0.000000  0.000000  0.000000      1.000000
  0.166667  0.000000  0.000000      2.000000
  0.333333  0.000000  0.000000      2.000000
  0.500000  0.000000  0.000000      1.000000
  0.000000  0.166667  0.000000      2.000000
  0.166667  0.166667  0.000000      2.000000
  0.166667 -0.166667  0.000000      2.000000
  0.333333  0.166667  0.000000      2.000000
  0.333333 -0.166667  0.000000      2.000000
  0.500000  0.166667  0.000000      2.000000
  0.000000  0.333333  0.000000      2.000000
  0.166667  0.333333  0.000000      2.000000
  0.166667 -0.333333  0.000000      2.000000
  0.333333  0.333333  0.000000      2.000000
  0.333333 -0.333333  0.000000      2.000000
  0.500000  0.333333  0.000000      2.000000
  0.000000  0.500000  0.000000      1.000000
  0.166667  0.500000  0.000000      2.000000
  0.333333  0.500000  0.000000      2.000000
  0.500000  0.500000  0.000000      1.000000
  0.000000  0.000000  0.500000      1.000000
  0.166667  0.000000  0.500000      2.000000
  0.333333  0.000000  0.500000      2.000000
  0.500000  0.000000  0.500000      1.000000
  0.000000  0.166667  0.500000      2.000000
  0.166667  0.166667  0.500000      2.000000
  0.166667 -0.166667  0.500000      2.000000
  0.333333  0.166667  0.500000      2.000000
  0.333333 -0.166667  0.500000      2.000000
  0.500000  0.166667  0.500000      2.000000
  0.000000  0.333333  0.500000      2.000000
  0.166667  0.333333  0.500000      2.000000
  0.166667 -0.333333  0.500000      2.000000
  0.333333  0.333333  0.500000      2.000000
  0.333333 -0.333333  0.500000      2.000000
  0.500000  0.333333  0.500000      2.000000
  0.000000  0.500000  0.500000      1.000000
  0.166667  0.500000  0.500000      2.000000
  0.333333  0.500000  0.500000      2.000000
  0.500000  0.500000  0.500000      1.000000
 
 Following cartesian coordinates:
            Coordinates               Weight
  0.000000  0.000000  0.000000      1.000000
  0.043199  0.000000  0.000000      2.000000
  0.086398  0.000000  0.000000      2.000000
  0.129597  0.000000  0.000000      1.000000
  0.000000  0.036820  0.000000      2.000000
  0.043199  0.036820  0.000000      2.000000
  0.043199 -0.036820  0.000000      2.000000
  0.086398  0.036820  0.000000      2.000000
  0.086398 -0.036820  0.000000      2.000000
  0.129597  0.036820  0.000000      2.000000
  0.000000  0.073639  0.000000      2.000000
  0.043199  0.073639  0.000000      2.000000
  0.043199 -0.073639  0.000000      2.000000
  0.086398  0.073639  0.000000      2.000000
  0.086398 -0.073639  0.000000      2.000000
  0.129597  0.073639  0.000000      2.000000
  0.000000  0.110459  0.000000      1.000000
  0.043199  0.110459  0.000000      2.000000
  0.086398  0.110459  0.000000      2.000000
  0.129597  0.110459  0.000000      1.000000
  0.000000  0.000000  0.043159      1.000000
  0.043199  0.000000  0.043159      2.000000
  0.086398  0.000000  0.043159      2.000000
  0.129597  0.000000  0.043159      1.000000
  0.000000  0.036820  0.043159      2.000000
  0.043199  0.036820  0.043159      2.000000
  0.043199 -0.036820  0.043159      2.000000
  0.086398  0.036820  0.043159      2.000000
  0.086398 -0.036820  0.043159      2.000000
  0.129597  0.036820  0.043159      2.000000
  0.000000  0.073639  0.043159      2.000000
  0.043199  0.073639  0.043159      2.000000
  0.043199 -0.073639  0.043159      2.000000
  0.086398  0.073639  0.043159      2.000000
  0.086398 -0.073639  0.043159      2.000000
  0.129597  0.073639  0.043159      2.000000
  0.000000  0.110459  0.043159      1.000000
  0.043199  0.110459  0.043159      2.000000
  0.086398  0.110459  0.043159      2.000000
  0.129597  0.110459  0.043159      1.000000
 


--------------------------------------------------------------------------------------------------------




 Dimension of arrays:
   k-points           NKPTS =     40   k-points in BZ     NKDIM =     40   number of bands    NBANDS=     32
   number of dos      NEDOS =    301   number of ions     NIONS =      8
   non local maximal  LDIM  =      5   non local SUM 2l+1 LMDIM =     13
   total plane-waves  NPLWV =  23328
   max r-space proj   IRMAX =      1   max aug-charges    IRDMAX=   6465
   dimension x,y,z NGX =    18 NGY =   24 NGZ =   54
   dimension x,y,z NGXF=    36 NGYF=   48 NGZF=  108
   support grid    NGXF=    36 NGYF=   48 NGZF=  108
   ions per type =               4   4
   NGX,Y,Z   is equivalent  to a cutoff of   7.76,  8.81,  7.75 a.u.
   NGXF,Y,Z  is equivalent  to a cutoff of  15.51, 17.63, 15.50 a.u.

 SYSTEM =  ./                                      
 POSCAR =  Ge Se                                   

 Startparameter for this run:
   NWRITE =      2    write-flag & timer
   PREC   = normal    normal or accurate (medium, high low for compatibility)
   ISTART =      0    job   : 0-new  1-cont  2-samecut
   ICHARG =      2    charge: 1-file 2-atom 10-const
   ISPIN  =      1    spin polarized calculation?
   LNONCOLLINEAR =      F non collinear calculations
   LSORBIT =      F    spin-orbit coupling
   INIWAV =      1    electr: 0-lowe 1-rand  2-diag
   LASPH  =      T    aspherical Exc in radial PAW
 Electronic Relaxation 1
   ENCUT  =  360.0 eV  26.46 Ry    5.14 a.u.   5.97  7.00 17.92*2*pi/ulx,y,z
   ENINI  =  360.0     initial cutoff
   ENAUG  =  446.8 eV  augmentation charge cutoff
   NELM   =    100;   NELMIN=  2; NELMDL= -5     # of ELM steps 
   EDIFF  = 0.1E-05   stopping-criterion for ELM
   LREAL  =      F    real-space projection
   NLSPLINE    = F    spline interpolate recip. space projectors
   LCOMPAT=      F    compatible to vasp.4.4
   GGA_COMPAT  = T    GGA compatible to vasp.4.4-vasp.4.6
   LMAXPAW     = -100 max onsite density
   LMAXMIX     =    4 max onsite mixed and CHGCAR
   VOSKOWN=      0    Vosko Wilk Nusair interpolation
   ROPT   =    0.00000   0.00000
 Ionic relaxation
   EDIFFG = 0.1E-04   stopping-criterion for IOM
   NSW    =      0    number of steps for IOM
   NBLOCK =      1;   KBLOCK =      1    inner block; outer block 
   IBRION =     -1    ionic relax: 0-MD 1-quasi-New 2-CG
   NFREE  =      0    steps in history (QN), initial steepest desc. (CG)
   ISIF   =      2    stress and relaxation
   IWAVPR =     10    prediction:  0-non 1-charg 2-wave 3-comb
   ISYM   =      0    0-nonsym 1-usesym 2-fastsym
   LCORR  =      T    Harris-Foulkes like correction to forces

   POTIM  = 0.5000    time-step for ionic-motion
   TEIN   =    0.0    initial temperature
   TEBEG  =    0.0;   TEEND  =   0.0 temperature during run
   SMASS  =  -3.00    Nose mass-parameter (am)
   estimated Nose-frequenzy (Omega)   =  0.10E-29 period in steps = 0.13E+47 mass=  -0.340E-27a.u.
   SCALEE = 1.0000    scale energy and forces
   NPACO  =    256;   APACO  = 10.0  distance and # of slots for P.C.
   PSTRESS=    0.0 pullay stress

  Mass of Ions in am
   POMASS =  72.61 78.96
  Ionic Valenz
   ZVAL   =   4.00  6.00
  Atomic Wigner-Seitz radii
   RWIGS  =  -1.00 -1.00
  virtual crystal weights 
   VCA    =   1.00  1.00
   NELECT =      40.0000    total number of electrons
   NUPDOWN=      -1.0000    fix difference up-down

 DOS related values:
   EMIN   =  10.00;   EMAX   =-10.00  energy-range for DOS
   EFERMI =   0.00;   METHOD = LEGACY      
   ISMEAR =     0;   SIGMA  =   0.05  broadening in eV -4-tet -1-fermi 0-gaus

 Electronic relaxation 2 (details)
   IALGO  =     38    algorithm
   LDIAG  =      T    sub-space diagonalisation (order eigenvalues)
   LSUBROT=      F    optimize rotation matrix (better conditioning)
   TURBO    =      0    0=normal 1=particle mesh
   IRESTART =      0    0=no restart 2=restart with 2 vectors
   NREBOOT  =      0    no. of reboots
   NMIN     =      0    reboot dimension
   EREF     =   0.00    reference energy to select bands
   IMIX   =      4    mixing-type and parameters
     AMIX     =   0.40;   BMIX     =  1.00
     AMIX_MAG =   1.60;   BMIX_MAG =  1.00
     AMIN     =   0.10
     WC   =   100.;   INIMIX=   1;  MIXPRE=   1;  MAXMIX= -45

 Intra band minimization:
   WEIMIN = 0.0000     energy-eigenvalue tresh-hold
   EBREAK =  0.78E-08  absolut break condition
   DEPER  =   0.30     relativ break condition  

   TIME   =   0.40     timestep for ELM

  volume/ion in A,a.u.               =      25.29       170.67
  Fermi-wavevector in a.u.,A,eV,Ry     =   0.953702  1.802236 12.375155  0.909548
  Thomas-Fermi vector in A             =   2.082382
 
 Write flags
   LWAVE        =      F    write WAVECAR
   LDOWNSAMPLE  =      F    k-point downsampling of WAVECAR
   LCHARG       =      F    write CHGCAR
   LVTOT        =      F    write LOCPOT, total local potential
   LVHAR        =      F    write LOCPOT, Hartree potential only
   LELF         =      F    write electronic localiz. function (ELF)
   LORBIT       =      0    0 simple, 1 ext, 2 COOP (PROOUT), +10 PAW based schemes


 Dipole corrections
   LMONO  =      F    monopole corrections only (constant potential shift)
   LDIPOL =      F    correct potential (dipole corrections)
   IDIPOL =      0    1-x, 2-y, 3-z, 4-all directions 
   EPSILON=  1.0000000 bulk dielectric constant

 Exchange correlation treatment:
   GGA     =    PE    GGA type
   LEXCH   =     8    internal setting for exchange type
   LIBXC   =     F    Libxc                    
   VOSKOWN =     0    Vosko Wilk Nusair interpolation
   LHFCALC =     F    Hartree Fock is set to
   LHFONE  =     F    Hartree Fock one center treatment
   AEXX    =    0.0000 exact exchange contribution

 Linear response parameters
   LEPSILON=     F    determine dielectric tensor
   LRPA    =     F    only Hartree local field effects (RPA)
   LNABLA  =     F    use nabla operator in PAW spheres
   LVEL    =     F    velocity operator in full k-point grid
   CSHIFT  =0.1000    complex shift for real part using Kramers Kronig
   OMEGAMAX=  -1.0    maximum frequency
   DEG_THRESHOLD= 0.2000000E-02 threshold for treating states as degnerate
   RTIME   =   -0.100 relaxation time in fs
  (WPLASMAI=    0.000 imaginary part of plasma frequency in eV, 0.658/RTIME)
   DFIELD  = 0.0000000 0.0000000 0.0000000 field for delta impulse in time
 
  Optional k-point grid parameters
   LKPOINTS_OPT  =     F    use optional k-point grid
   KPOINTS_OPT_MODE=     1    mode for optional k-point grid
 
 Orbital magnetization related:
   ORBITALMAG=     F  switch on orbital magnetization
   LCHIMAG   =     F  perturbation theory with respect to B field
   DQ        =  0.001000  dq finite difference perturbation B field
   LLRAUG    =     F  two centre corrections for induced B field
   LBONE     =     F  B-component reconstruction in AE one-centre
   LVGVCALC  =     T  calculate vGv susceptibility
   LVGVAPPL  =     F  apply vGv susceptibility instead of pGv for G=0

 Random number generation:
   RANDOM_GENERATOR = DEFAULT
   PCG_SEED         = not used


--------------------------------------------------------------------------------------------------------


 Static calculation
 charge density and potential will be updated during run
 non-spin polarized calculation
 Variant of blocked Davidson
 Davidson routine will perform the subspace rotation
 perform sub-space diagonalisation
    after iterative eigenvector-optimisation
 modified Broyden-mixing scheme, WC =      100.0
 initial mixing is a Kerker type mixing with AMIX =  0.4000 and BMIX =      1.0000
 Hartree-type preconditioning will be used
 using additional bands            12
 reciprocal scheme for non local part
 use partial core corrections
 calculate Harris-corrections to forces 
   (improved forces if not selfconsistent)
 use gradient corrections 
 use of overlap-Matrix (Vanderbilt PP)
 Gauss-broadening in eV      SIGMA  =   0.05


--------------------------------------------------------------------------------------------------------


  energy-cutoff  :      360.00
  volume of cell :      202.32
      direct lattice vectors                 reciprocal lattice vectors
     3.858100176  0.000000000  0.000000000     0.259194929  0.000000000  0.000000000
     0.000000000  4.526575088  0.000000000     0.000000000  0.220917577  0.000000000
     0.000000000  0.000000000 11.585176468     0.000000000  0.000000000  0.086317200

  length of vectors
     3.858100176  4.526575088 11.585176468     0.259194929  0.220917577  0.086317200


 
 k-points in units of 2pi/SCALE and weight: KPOINTS created by Atomic Simulation Env
   0.00000000  0.00000000  0.00000000       0.014
   0.04319915  0.00000000  0.00000000       0.028
   0.08639831  0.00000000  0.00000000       0.028
   0.12959746  0.00000000  0.00000000       0.014
   0.00000000  0.03681960  0.00000000       0.028
   0.04319915  0.03681960  0.00000000       0.028
   0.04319915 -0.03681960  0.00000000       0.028
   0.08639831  0.03681960  0.00000000       0.028
   0.08639831 -0.03681960  0.00000000       0.028
   0.12959746  0.03681960  0.00000000       0.028
   0.00000000  0.07363919  0.00000000       0.028
   0.04319915  0.07363919  0.00000000       0.028
   0.04319915 -0.07363919  0.00000000       0.028
   0.08639831  0.07363919  0.00000000       0.028
   0.08639831 -0.07363919  0.00000000       0.028
   0.12959746  0.07363919  0.00000000       0.028
   0.00000000  0.11045879  0.00000000       0.014
   0.04319915  0.11045879  0.00000000       0.028
   0.08639831  0.11045879  0.00000000       0.028
   0.12959746  0.11045879  0.00000000       0.014
   0.00000000  0.00000000  0.04315860       0.014
   0.04319915  0.00000000  0.04315860       0.028
   0.08639831  0.00000000  0.04315860       0.028
   0.12959746  0.00000000  0.04315860       0.014
   0.00000000  0.03681960  0.04315860       0.028
   0.04319915  0.03681960  0.04315860       0.028
   0.04319915 -0.03681960  0.04315860       0.028
   0.08639831  0.03681960  0.04315860       0.028
   0.08639831 -0.03681960  0.04315860       0.028
   0.12959746  0.03681960  0.04315860       0.028
   0.00000000  0.07363919  0.04315860       0.028
   0.04319915  0.07363919  0.04315860       0.028
   0.04319915 -0.07363919  0.04315860       0.028
   0.08639831  0.07363919  0.04315860       0.028
   0.08639831 -0.07363919  0.04315860       0.028
   0.12959746  0.07363919  0.04315860       0.028
   0.00000000  0.11045879  0.04315860       0.014
   0.04319915  0.11045879  0.04315860       0.028
   0.08639831  0.11045879  0.04315860       0.028
   0.12959746  0.11045879  0.04315860       0.014
 
 k-points in reciprocal lattice and weights: KPOINTS created by Atomic Simulation Env
   0.00000000  0.00000000  0.00000000       0.014
   0.16666667  0.00000000  0.00000000       0.028
   0.33333333  0.00000000  0.00000000       0.028
   0.50000000  0.00000000  0.00000000       0.014
   0.00000000  0.16666667  0.00000000       0.028
   0.16666667  0.16666667  0.00000000       0.028
   0.16666667 -0.16666667  0.00000000       0.028
   0.33333333  0.16666667  0.00000000       0.028
   0.33333333 -0.16666667  0.00000000       0.028
   0.50000000  0.16666667  0.00000000       0.028
   0.00000000  0.33333333  0.00000000       0.028
   0.16666667  0.33333333  0.00000000       0.028
   0.16666667 -0.33333333  0.00000000       0.028
   0.33333333  0.33333333  0.00000000       0.028
   0.33333333 -0.33333333  0.00000000       0.028
   0.50000000  0.33333333  0.00000000       0.028
   0.00000000  0.50000000  0.00000000       0.014
   0.16666667  0.50000000  0.00000000       0.028
   0.33333333  0.50000000  0.00000000       0.028
   0.50000000  0.50000000  0.00000000       0.014
   0.00000000  0.00000000  0.50000000       0.014
   0.16666667  0.00000000  0.50000000       0.028
   0.33333333  0.00000000  0.50000000       0.028
   0.50000000  0.00000000  0.50000000       0.014
   0.00000000  0.16666667  0.50000000       0.028
   0.16666667  0.16666667  0.50000000       0.028
   0.16666667 -0.16666667  0.50000000       0.028
   0.33333333  0.16666667  0.50000000       0.028
   0.33333333 -0.16666667  0.50000000       0.028
   0.50000000  0.16666667  0.50000000       0.028
   0.00000000  0.33333333  0.50000000       0.028
   0.16666667  0.33333333  0.50000000       0.028
   0.16666667 -0.33333333  0.50000000       0.028
   0.33333333  0.33333333  0.50000000       0.028
   0.33333333 -0.33333333  0.50000000       0.028
   0.50000000  0.33333333  0.50000000       0.028
   0.00000000  0.50000000  0.50000000       0.014
   0.16666667  0.50000000  0.50000000       0.028
   0.33333333  0.50000000  0.50000000       0.028
   0.50000000  0.50000000  0.50000000       0.014
 
 position of ions in fractional coordinates (direct lattice) 
   0.46739131  0.82088104  0.13197174
   0.96739127  0.32088103  0.36802823
   0.74999985  0.90375655  0.86802825
   0.24999978  0.40375650  0.63197176
   0.46739129  0.70410339  0.35110993
   0.96739131  0.20410341  0.14889005
   0.74999976  0.02053415  0.64889008
   0.24999984  0.52053418  0.85110995
 
 position of ions in cartesian coordinates  (Angst):
   1.80324249  3.71577966  1.52891595
   3.73229244  1.45249206  4.26367197
   2.89357457  4.09092188 10.05626045
   0.96452420  1.82763412  7.32150435
   1.80324242  3.18717685  4.06767047
   3.73229257  0.92388940  1.72491749
   2.89357421  0.09294938  7.51750603
   0.96452442  2.35623703  9.86025892
 


--------------------------------------------------------------------------------------------------------


 k-point   1 :   0.0000 0.0000 0.0000  plane waves:    3119
 k-point   2 :   0.1667 0.0000 0.0000  plane waves:    3116
 k-point   3 :   0.3333 0.0000 0.0000  plane waves:    3142
 k-point   4 :   0.5000 0.0000 0.0000  plane waves:    3148
 k-point   5 :   0.0000 0.1667 0.0000  plane waves:    3108
 k-point   6 :   0.1667 0.1667 0.0000  plane waves:    3123
 k-point   7 :   0.1667-0.1667 0.0000  plane waves:    3123
 k-point   8 :   0.3333 0.1667 0.0000  plane waves:    3135
 k-point   9 :   0.3333-0.1667 0.0000  plane waves:    3135
 k-point  10 :   0.5000 0.1667 0.0000  plane waves:    3138
 k-point  11 :   0.0000 0.3333 0.0000  plane waves:    3116
 k-point  12 :   0.1667 0.3333 0.0000  plane waves:    3133
 k-point  13 :   0.1667-0.3333 0.0000  plane waves:    3133
 k-point  14 :   0.3333 0.3333 0.0000  plane waves:    3155
 k-point  15 :   0.3333-0.3333 0.0000  plane waves:    3155
 k-point  16 :   0.5000 0.3333 0.0000  plane waves:    3152
 k-point  17 :   0.0000 0.5000 0.0000  plane waves:    3134
 k-point  18 :   0.1667 0.5000 0.0000  plane waves:    3140
 k-point  19 :   0.3333 0.5000 0.0000  plane waves:    3144
 k-point  20 :   0.5000 0.5000 0.0000  plane waves:    3144
 k-point  21 :   0.0000 0.0000 0.5000  plane waves:    3092
 k-point  22 :   0.1667 0.0000 0.5000  plane waves:    3124
 k-point  23 :   0.3333 0.0000 0.5000  plane waves:    3140
 k-point  24 :   0.5000 0.0000 0.5000  plane waves:    3132
 k-point  25 :   0.0000 0.1667 0.5000  plane waves:    3112
 k-point  26 :   0.1667 0.1667 0.5000  plane waves:    3140
 k-point  27 :   0.1667-0.1667 0.5000  plane waves:    3140
 k-point  28 :   0.3333 0.1667 0.5000  plane waves:    3134
 k-point  29 :   0.3333-0.1667 0.5000  plane waves:    3134
 k-point  30 :   0.5000 0.1667 0.5000  plane waves:    3144
 k-point  31 :   0.0000 0.3333 0.5000  plane waves:    3130
 k-point  32 :   0.1667 0.3333 0.5000  plane waves:    3148
 k-point  33 :   0.1667-0.3333 0.5000  plane waves:    3148
 k-point  34 :   0.3333 0.3333 0.5000  plane waves:    3142
 k-point  35 :   0.3333-0.3333 0.5000  plane waves:    3142
 k-point  36 :   0.5000 0.3333 0.5000  plane waves:    3152
 k-point  37 :   0.0000 0.5000 0.5000  plane waves:    3132
 k-point  38 :   0.1667 0.5000 0.5000  plane waves:    3148
 k-point  39 :   0.3333 0.5000 0.5000  plane waves:    3140
 k-point  40 :   0.5000 0.5000 0.5000  plane waves:    3160

 maximum and minimum number of plane-waves per node :       659      606

 maximum number of plane-waves:      3160
 maximum index in each direction: 
   IXMAX=    5   IYMAX=    7   IZMAX=   17
   IXMIN=   -6   IYMIN=   -7   IZMIN=  -18


 parallel 3D FFT for wavefunctions:
    minimum data exchange during FFTs selected (reduces bandwidth)
 parallel 3D FFT for charge:
    minimum data exchange during FFTs selected (reduces bandwidth)


 total amount of memory used by VASP MPI-rank0    37119. kBytes
=======================================================================

   base      :      30000. kBytes
   nonl-proj :       5406. kBytes
   fftplans  :        334. kBytes
   grid      :        503. kBytes
   one-center:         16. kBytes
   wavefun   :        860. kBytes
 
     INWAV:  cpu time      0.0000: real time      0.0001
 Broyden mixing: mesh for mixing (old mesh)
   NGX = 11   NGY = 15   NGZ = 35
  (NGX  = 36   NGY  = 48   NGZ  =108)
  gives a total of   5775 points

 initial charge density was supplied:
 charge density of overlapping atoms calculated
 number of electron      40.0000000 magnetization 
 keeping initial charge density in first step


--------------------------------------------------------------------------------------------------------


 Maximum index for augmentation-charges           413 (set IRDMAX)


--------------------------------------------------------------------------------------------------------


 First call to EWALD:  gamma=   0.302
 Maximum number of real-space cells 4x 3x 2
 Maximum number of reciprocal cells 2x 2x 5

    FEWALD:  cpu time      0.0015: real time      0.0015


--------------------------------------- Ionic step        1  -------------------------------------------




--------------------------------------- Iteration      1(   1)  ---------------------------------------


    POTLOK:  cpu time      0.0083: real time      0.0084
    SETDIJ:  cpu time      0.2164: real time      0.2168
     EDDAV:  cpu time      0.3051: real time      0.3068
       DOS:  cpu time      0.0011: real time      0.0011
    --------------------------------------------
      LOOP:  cpu time      0.5308: real time      0.5331

 eigenvalue-minimisations  :  2560
 total energy-change (2. order) : 0.1319023E+03  (-0.1288653E+04)
 number of electron      40.0000000 magnetization 
 augmentation part       40.0000000 magnetization 

 Free energy of the ion-electron system (eV)
  ---------------------------------------------------
  alpha Z        PSCENC =        83.74935623
  Ewald energy   TEWEN  =     -1383.29808892
  -Hartree energ DENC   =      -145.91860151
  -exchange      EXHF   =         0.00000000
  -V(xc)+E(xc)   XCENC  =       -33.72957033
  PAW double counting   =      1193.78262552    -1080.73714043
  entropy T*S    EENTRO =        -0.00186349
  eigenvalues    EBANDS =        49.57096964
  atomic energy  EATOM  =      1448.48460880
  Solvation  Ediel_sol  =         0.00000000
  ---------------------------------------------------
  free energy    TOTEN  =       131.90229550 eV

  energy without entropy =      131.90415899  energy(sigma->0) =      131.90322725


--------------------------------------------------------------------------------------------------------




--------------------------------------- Iteration      1(   2)  ---------------------------------------


     EDDAV:  cpu time      0.4297: real time      0.4328
       DOS:  cpu time      0.0005: real time      0.0005
    --------------------------------------------
      LOOP:  cpu time      0.4302: real time      0.4333

 eigenvalue-minimisations  :  3744
 total energy-change (2. order) :-0.1570745E+03  (-0.1523859E+03)
 number of electron      40.0000000 magnetization 
 augmentation part       40.0000000 magnetization 

 Free energy of the ion-electron system (eV)
  ---------------------------------------------------
  alpha Z        PSCENC =        83.74935623
  Ewald energy   TEWEN  =     -1383.29808892
  -Hartree energ DENC   =      -145.91860151
  -exchange      EXHF   =         0.00000000
  -V(xc)+E(xc)   XCENC  =       -33.72957033
  PAW double counting   =      1193.78262552    -1080.73714043
  entropy T*S    EENTRO =        -0.00000000
  eigenvalues    EBANDS =      -107.50539543
  atomic energy  EATOM  =      1448.48460880
  Solvation  Ediel_sol  =         0.00000000
  ---------------------------------------------------
  free energy    TOTEN  =       -25.17220608 eV

  energy without entropy =      -25.17220608  energy(sigma->0) =      -25.17220608


--------------------------------------------------------------------------------------------------------




--------------------------------------- Iteration      1(   3)  ---------------------------------------


     EDDAV:  cpu time      0.3615: real time      0.3634
       DOS:  cpu time      0.0005: real time      0.0005
    --------------------------------------------
      LOOP:  cpu time      0.3621: real time      0.3639

 eigenvalue-minimisations  :  3088
 total energy-change (2. order) :-0.8832694E+01  (-0.8814477E+01)
 number of electron      40.0000000 magnetization 
 augmentation part       40.0000000 magnetization 

 Free energy of the ion-electron system (eV)
  ---------------------------------------------------
  alpha Z        PSCENC =        83.74935623
  Ewald energy   TEWEN  =     -1383.29808892
  -Hartree energ DENC   =      -145.91860151
  -exchange      EXHF   =         0.00000000
  -V(xc)+E(xc)   XCENC  =       -33.72957033
  PAW double counting   =      1193.78262552    -1080.73714043
  entropy T*S    EENTRO =        -0.00000000
  eigenvalues    EBANDS =      -116.33808935
  atomic energy  EATOM  =      1448.48460880
  Solvation  Ediel_sol  =         0.00000000
  ---------------------------------------------------
  free energy    TOTEN  =       -34.00490000 eV

  energy without entropy =      -34.00490000  energy(sigma->0) =      -34.00490000


--------------------------------------------------------------------------------------------------------




--------------------------------------- Iteration      1(   4)  ---------------------------------------


     EDDAV:  cpu time      0.3939: real time      0.3962
       DOS:  cpu time      0.0005: real time      0.0005
    --------------------------------------------
      LOOP:  cpu time      0.3945: real time      0.3968

 eigenvalue-minimisations  :  3360
 total energy-change (2. order) :-0.6498960E-01  (-0.6497284E-01)
 number of electron      40.0000000 magnetization 
 augmentation part       40.0000000 magnetization 

 Free energy of the ion-electron system (eV)
  ---------------------------------------------------
  alpha Z        PSCENC =        83.74935623
  Ewald energy   TEWEN  =     -1383.29808892
  -Hartree energ DENC   =      -145.91860151
  -exchange      EXHF   =         0.00000000
  -V(xc)+E(xc)   XCENC  =       -33.72957033
  PAW double counting   =      1193.78262552    -1080.73714043
  entropy T*S    EENTRO =        -0.00000000
  eigenvalues    EBANDS =      -116.40307895
  atomic energy  EATOM  =      1448.48460880
  Solvation  Ediel_sol  =         0.00000000
  ---------------------------------------------------
  free energy    TOTEN  =       -34.06988960 eV

  energy without entropy =      -34.06988960  energy(sigma->0) =      -34.06988960


--------------------------------------------------------------------------------------------------------




--------------------------------------- Iteration      1(   5)  ---------------------------------------


     EDDAV:  cpu time      0.3561: real time      0.3582
       DOS:  cpu time      0.0005: real time      0.0005
    CHARGE:  cpu time      0.0056: real time      0.0056
    MIXING:  cpu time      0.0004: real time      0.0004
    --------------------------------------------
      LOOP:  cpu time      0.3627: real time      0.3647

 eigenvalue-minimisations  :  3072
 total energy-change (2. order) :-0.4629305E-03  (-0.4629243E-03)
 number of electron      39.9999960 magnetization 
 augmentation part       -7.4133481 magnetization 

 Broyden mixing:
  rms(total) = 0.64827E+00    rms(broyden)= 0.64826E+00
  rms(prec ) = 0.72818E+00
  weight for this iteration     100.00

 Free energy of the ion-electron system (eV)
  ---------------------------------------------------
  alpha Z        PSCENC =        83.74935623
  Ewald energy   TEWEN  =     -1383.29808892
  -Hartree energ DENC   =      -145.91860151
  -exchange      EXHF   =         0.00000000
  -V(xc)+E(xc)   XCENC  =       -33.72957033
  PAW double counting   =      1193.78262552    -1080.73714043
  entropy T*S    EENTRO =        -0.00000000
  eigenvalues    EBANDS =      -116.40354188
  atomic energy  EATOM  =      1448.48460880
  Solvation  Ediel_sol  =         0.00000000
  ---------------------------------------------------
  free energy    TOTEN  =       -34.07035253 eV

  energy without entropy =      -34.07035253  energy(sigma->0) =      -34.07035253


--------------------------------------------------------------------------------------------------------




--------------------------------------- Iteration      1(   6)  ---------------------------------------


    POTLOK:  cpu time      0.0076: real time      0.0077
    SETDIJ:  cpu time      0.2179: real time      0.2184
     EDDAV:  cpu time      0.3751: real time      0.3772
       DOS:  cpu time      0.0029: real time      0.0029
    CHARGE:  cpu time      0.0055: real time      0.0055
    MIXING:  cpu time      0.0005: real time      0.0005
    --------------------------------------------
      LOOP:  cpu time      0.6094: real time      0.6121

 eigenvalue-minimisations  :  3184
 total energy-change (2. order) : 0.3915745E+00  (-0.8228451E-01)
 number of electron      39.9999961 magnetization 
 augmentation part       -7.3541962 magnetization 

 Broyden mixing:
  rms(total) = 0.40862E+00    rms(broyden)= 0.40862E+00
  rms(prec ) = 0.42882E+00
  weight for this iteration     100.00

 eigenvalues of (default mixing * dielectric matrix)
  average eigenvalue GAMMA=   2.1734
  2.1734

 Free energy of the ion-electron system (eV)
  ---------------------------------------------------
  alpha Z        PSCENC =        83.74935623
  Ewald energy   TEWEN  =     -1383.29808892
  -Hartree energ DENC   =      -152.09533318
  -exchange      EXHF   =         0.00000000
  -V(xc)+E(xc)   XCENC  =       -33.10531585
  PAW double counting   =      1455.76754327    -1343.03822892
  entropy T*S    EENTRO =        -0.00000000
  eigenvalues    EBANDS =      -110.14331949
  atomic energy  EATOM  =      1448.48460880
  Solvation  Ediel_sol  =         0.00000000
  ---------------------------------------------------
  free energy    TOTEN  =       -33.67877806 eV

  energy without entropy =      -33.67877806  energy(sigma->0) =      -33.67877806


--------------------------------------------------------------------------------------------------------




--------------------------------------- Iteration      1(   7)  ---------------------------------------


    POTLOK:  cpu time      0.0076: real time      0.0077
    SETDIJ:  cpu time      0.2228: real time      0.2235
     EDDAV:  cpu time      0.3647: real time      0.3669
       DOS:  cpu time      0.0007: real time      0.0007
    CHARGE:  cpu time      0.0053: real time      0.0054
    MIXING:  cpu time      0.0005: real time      0.0005
    --------------------------------------------
      LOOP:  cpu time      0.6016: real time      0.6046

 eigenvalue-minimisations  :  3072
 total energy-change (2. order) : 0.8634404E-02  (-0.2272256E-01)
 number of electron      39.9999962 magnetization 
 augmentation part       -7.3373874 magnetization 

 Broyden mixing:
  rms(total) = 0.13070E+00    rms(broyden)= 0.13070E+00
  rms(prec ) = 0.13925E+00
  weight for this iteration     100.00

 eigenvalues of (default mixing * dielectric matrix)
  average eigenvalue GAMMA=   1.7817
  1.1893  2.3740

 Free energy of the ion-electron system (eV)
  ---------------------------------------------------
  alpha Z        PSCENC =        83.74935623
  Ewald energy   TEWEN  =     -1383.29808892
  -Hartree energ DENC   =      -154.97543311
  -exchange      EXHF   =         0.00000000
  -V(xc)+E(xc)   XCENC  =       -32.62276536
  PAW double counting   =      1777.74339010    -1665.24438593
  entropy T*S    EENTRO =        -0.00000000
  eigenvalues    EBANDS =      -107.50682546
  atomic energy  EATOM  =      1448.48460880
  Solvation  Ediel_sol  =         0.00000000
  ---------------------------------------------------
  free energy    TOTEN  =       -33.67014365 eV

  energy without entropy =      -33.67014365  energy(sigma->0) =      -33.67014365


--------------------------------------------------------------------------------------------------------




--------------------------------------- Iteration      1(   8)  ---------------------------------------


    POTLOK:  cpu time      0.0076: real time      0.0077
    SETDIJ:  cpu time      0.2203: real time      0.2210
     EDDAV:  cpu time      0.4057: real time      0.4074
       DOS:  cpu time      0.0007: real time      0.0007
    CHARGE:  cpu time      0.0055: real time      0.0055
    MIXING:  cpu time      0.0005: real time      0.0005
    --------------------------------------------
      LOOP:  cpu time      0.6403: real time      0.6429

 eigenvalue-minimisations  :  3168
 total energy-change (2. order) : 0.1152612E-02  (-0.2316304E-02)
 number of electron      39.9999961 magnetization 
 augmentation part       -7.3454129 magnetization 

 Broyden mixing:
  rms(total) = 0.18160E-01    rms(broyden)= 0.18160E-01
  rms(prec ) = 0.22067E-01
  weight for this iteration     100.00

 eigenvalues of (default mixing * dielectric matrix)
  average eigenvalue GAMMA=   1.6894
  2.5144  1.2768  1.2768

 Free energy of the ion-electron system (eV)
  ---------------------------------------------------
  alpha Z        PSCENC =        83.74935623
  Ewald energy   TEWEN  =     -1383.29808892
  -Hartree energ DENC   =      -155.16947115
  -exchange      EXHF   =         0.00000000
  -V(xc)+E(xc)   XCENC  =       -32.47610007
  PAW double counting   =      1916.09827642    -1803.65773387
  entropy T*S    EENTRO =        -0.00000000
  eigenvalues    EBANDS =      -107.39983847
  atomic energy  EATOM  =      1448.48460880
  Solvation  Ediel_sol  =         0.00000000
  ---------------------------------------------------
  free energy    TOTEN  =       -33.66899104 eV

  energy without entropy =      -33.66899104  energy(sigma->0) =      -33.66899104


--------------------------------------------------------------------------------------------------------




--------------------------------------- Iteration      1(   9)  ---------------------------------------


    POTLOK:  cpu time      0.0077: real time      0.0079
    SETDIJ:  cpu time      0.2191: real time      0.2195
     EDDAV:  cpu time      0.3761: real time      0.3781
       DOS:  cpu time      0.0007: real time      0.0007
    CHARGE:  cpu time      0.0055: real time      0.0055
    MIXING:  cpu time      0.0005: real time      0.0005
    --------------------------------------------
      LOOP:  cpu time      0.6094: real time      0.6121

 eigenvalue-minimisations  :  3200
 total energy-change (2. order) :-0.4407254E-03  (-0.3505270E-03)
 number of electron      39.9999961 magnetization 
 augmentation part       -7.3436748 magnetization 

 Broyden mixing:
  rms(total) = 0.69845E-02    rms(broyden)= 0.69845E-02
  rms(prec ) = 0.78154E-02
  weight for this iteration     100.00

 eigenvalues of (default mixing * dielectric matrix)
  average eigenvalue GAMMA=   1.7562
  2.3406  2.3406  1.1718  1.1718

 Free energy of the ion-electron system (eV)
  ---------------------------------------------------
  alpha Z        PSCENC =        83.74935623
  Ewald energy   TEWEN  =     -1383.29808892
  -Hartree energ DENC   =      -155.56096796
  -exchange      EXHF   =         0.00000000
  -V(xc)+E(xc)   XCENC  =       -32.43040078
  PAW double counting   =      1931.38445556    -1818.95432224
  entropy T*S    EENTRO =        -0.00000000
  eigenvalues    EBANDS =      -107.04407245
  atomic energy  EATOM  =      1448.48460880
  Solvation  Ediel_sol  =         0.00000000
  ---------------------------------------------------
  free energy    TOTEN  =       -33.66943177 eV

  energy without entropy =      -33.66943177  energy(sigma->0) =      -33.66943177


--------------------------------------------------------------------------------------------------------




--------------------------------------- Iteration      1(  10)  ---------------------------------------


    POTLOK:  cpu time      0.0075: real time      0.0076
    SETDIJ:  cpu time      0.2174: real time      0.2179
     EDDAV:  cpu time      0.3941: real time      0.3962
       DOS:  cpu time      0.0006: real time      0.0006
    CHARGE:  cpu time      0.0053: real time      0.0053
    MIXING:  cpu time      0.0005: real time      0.0005
    --------------------------------------------
      LOOP:  cpu time      0.6254: real time      0.6281

 eigenvalue-minimisations  :  3296
 total energy-change (2. order) :-0.1581943E-03  (-0.3288422E-04)
 number of electron      39.9999961 magnetization 
 augmentation part       -7.3436146 magnetization 

 Broyden mixing:
  rms(total) = 0.25163E-02    rms(broyden)= 0.25163E-02
  rms(prec ) = 0.30281E-02
  weight for this iteration     100.00

 eigenvalues of (default mixing * dielectric matrix)
  average eigenvalue GAMMA=   1.7511
  2.7301  2.4427  1.1625  1.2100  1.2100

 Free energy of the ion-electron system (eV)
  ---------------------------------------------------
  alpha Z        PSCENC =        83.74935623
  Ewald energy   TEWEN  =     -1383.29808892
  -Hartree energ DENC   =      -155.60373901
  -exchange      EXHF   =         0.00000000
  -V(xc)+E(xc)   XCENC  =       -32.42612634
  PAW double counting   =      1923.89418520    -1811.45816982
  entropy T*S    EENTRO =        -0.00000000
  eigenvalues    EBANDS =      -107.01161609
  atomic energy  EATOM  =      1448.48460880
  Solvation  Ediel_sol  =         0.00000000
  ---------------------------------------------------
  free energy    TOTEN  =       -33.66958996 eV

  energy without entropy =      -33.66958996  energy(sigma->0) =      -33.66958996


--------------------------------------------------------------------------------------------------------




--------------------------------------- Iteration      1(  11)  ---------------------------------------


    POTLOK:  cpu time      0.0075: real time      0.0076
    SETDIJ:  cpu time      0.2163: real time      0.2166
     EDDAV:  cpu time      0.3714: real time      0.3738
       DOS:  cpu time      0.0006: real time      0.0007
    CHARGE:  cpu time      0.0054: real time      0.0054
    MIXING:  cpu time      0.0005: real time      0.0005
    --------------------------------------------
      LOOP:  cpu time      0.6017: real time      0.6046

 eigenvalue-minimisations  :  3008
 total energy-change (2. order) :-0.3668233E-04  (-0.4352539E-05)
 number of electron      39.9999961 magnetization 
 augmentation part       -7.3437420 magnetization 

 Broyden mixing:
  rms(total) = 0.12113E-02    rms(broyden)= 0.12113E-02
  rms(prec ) = 0.13495E-02
  weight for this iteration     100.00

 eigenvalues of (default mixing * dielectric matrix)
  average eigenvalue GAMMA=   1.7296
  2.4108  2.4108  2.2854  1.1757  1.1757  0.9196

 Free energy of the ion-electron system (eV)
  ---------------------------------------------------
  alpha Z        PSCENC =        83.74935623
  Ewald energy   TEWEN  =     -1383.29808892
  -Hartree energ DENC   =      -155.64057529
  -exchange      EXHF   =         0.00000000
  -V(xc)+E(xc)   XCENC  =       -32.41888712
  PAW double counting   =      1925.82874928    -1813.39326436
  entropy T*S    EENTRO =        -0.00000000
  eigenvalues    EBANDS =      -106.98152526
  atomic energy  EATOM  =      1448.48460880
  Solvation  Ediel_sol  =         0.00000000
  ---------------------------------------------------
  free energy    TOTEN  =       -33.66962664 eV

  energy without entropy =      -33.66962664  energy(sigma->0) =      -33.66962664


--------------------------------------------------------------------------------------------------------




--------------------------------------- Iteration      1(  12)  ---------------------------------------


    POTLOK:  cpu time      0.0075: real time      0.0076
    SETDIJ:  cpu time      0.2153: real time      0.2159
     EDDAV:  cpu time      0.4324: real time      0.4343
       DOS:  cpu time      0.0007: real time      0.0007
    CHARGE:  cpu time      0.0056: real time      0.0057
    MIXING:  cpu time      0.0005: real time      0.0005
    --------------------------------------------
      LOOP:  cpu time      0.6621: real time      0.6647

 eigenvalue-minimisations  :  3504
 total energy-change (2. order) :-0.1936675E-05  (-0.6715968E-06)
 number of electron      39.9999961 magnetization 
 augmentation part       -7.3436327 magnetization 

 Broyden mixing:
  rms(total) = 0.30659E-03    rms(broyden)= 0.30659E-03
  rms(prec ) = 0.37945E-03
  weight for this iteration     100.00

 eigenvalues of (default mixing * dielectric matrix)
  average eigenvalue GAMMA=   1.7096
  2.9598  2.4210  2.0541  0.9882  1.2671  1.1385  1.1385

 Free energy of the ion-electron system (eV)
  ---------------------------------------------------
  alpha Z        PSCENC =        83.74935623
  Ewald energy   TEWEN  =     -1383.29808892
  -Hartree energ DENC   =      -155.65505975
  -exchange      EXHF   =         0.00000000
  -V(xc)+E(xc)   XCENC  =       -32.41781663
  PAW double counting   =      1925.27605862    -1812.84050084
  entropy T*S    EENTRO =        -0.00000000
  eigenvalues    EBANDS =      -106.96818609
  atomic energy  EATOM  =      1448.48460880
  Solvation  Ediel_sol  =         0.00000000
  ---------------------------------------------------
  free energy    TOTEN  =       -33.66962858 eV

  energy without entropy =      -33.66962858  energy(sigma->0) =      -33.66962858


--------------------------------------------------------------------------------------------------------




--------------------------------------- Iteration      1(  13)  ---------------------------------------


    POTLOK:  cpu time      0.0075: real time      0.0076
    SETDIJ:  cpu time      0.2168: real time      0.2173
     EDDAV:  cpu time      0.2836: real time      0.2871
       DOS:  cpu time      0.0007: real time      0.0007
    --------------------------------------------
      LOOP:  cpu time      0.5085: real time      0.5128

 eigenvalue-minimisations  :  2128
 total energy-change (2. order) :-0.7850368E-06  (-0.1578413E-06)
 number of electron      39.9999961 magnetization 
 augmentation part       -7.3436327 magnetization 

 Free energy of the ion-electron system (eV)
  ---------------------------------------------------
  alpha Z        PSCENC =        83.74935623
  Ewald energy   TEWEN  =     -1383.29808892
  -Hartree energ DENC   =      -155.65970946
  -exchange      EXHF   =         0.00000000
  -V(xc)+E(xc)   XCENC  =       -32.41718030
  PAW double counting   =      1925.19604439    -1812.76032062
  entropy T*S    EENTRO =        -0.00000000
  eigenvalues    EBANDS =      -106.96433948
  atomic energy  EATOM  =      1448.48460880
  Solvation  Ediel_sol  =         0.00000000
  ---------------------------------------------------
  free energy    TOTEN  =       -33.66962937 eV

  energy without entropy =      -33.66962937  energy(sigma->0) =      -33.66962937


--------------------------------------------------------------------------------------------------------




 average (electrostatic) potential at core
  the test charge radii are     1.1631  1.0808
  (the norm of the test charge is              1.0000)
       1 -33.8138       2 -33.8138       3 -33.8138       4 -33.8138       5 -55.3112
       6 -55.3112       7 -55.3112       8 -55.3112
 
 
 
 E-fermi :   2.9574     XC(G=0):  -9.0558     alpha+bet : -8.3433

 Fermi energy:         2.9574130961

 k-point     1 :       0.0000    0.0000    0.0000
  band No.  band energies     occupation 
      1     -11.2190      2.00000
      2     -11.0163      2.00000
      3      -9.9454      2.00000
      4      -9.6549      2.00000
      5      -5.0576      2.00000
      6      -4.4203      2.00000
      7      -3.0405      2.00000
      8      -2.6485      2.00000
      9      -2.0460      2.00000
     10      -0.7043      2.00000
     11      -0.4377      2.00000
     12      -0.3747      2.00000
     13      -0.0092      2.00000
     14       0.0445      2.00000
     15       1.0324      2.00000
     16       1.2824      2.00000
     17       1.3401      2.00000
     18       1.6854      2.00000
     19       2.4525      2.00000
     20       2.5894      2.00000
     21       3.1486      0.00000
     22       5.3138      0.00000
     23       5.5695      0.00000
     24       5.7110      0.00000
     25       6.0882      0.00000
     26       6.6514      0.00000
     27       6.7743      0.00000
     28       7.0258      0.00000
     29       7.5992      0.00000
     30       8.2356      0.00000
     31       8.3755      0.00000
     32       8.5691      0.00000

 k-point     2 :       0.1667    0.0000    0.0000
  band No.  band energies     occupation 
      1     -11.0330      2.00000
      2     -10.8386      2.00000
      3      -9.8411      2.00000
      4      -9.5850      2.00000
      5      -5.2700      2.00000
      6      -4.6584      2.00000
      7      -3.4801      2.00000
      8      -3.0676      2.00000
      9      -1.8938      2.00000
     10      -0.5886      2.00000
     11      -0.4371      2.00000
     12      -0.3108      2.00000
     13      -0.1778      2.00000
     14       0.0061      2.00000
     15       0.7799      2.00000
     16       1.0721      2.00000
     17       1.5413      2.00000
     18       1.9104      2.00000
     19       2.1079      2.00000
     20       2.5963      2.00000
     21       3.4016      0.00000
     22       5.1166      0.00000
     23       5.6349      0.00000
     24       5.9866      0.00000
     25       6.1094      0.00000
     26       6.3033      0.00000
     27       6.4343      0.00000
     28       7.0680      0.00000
     29       7.4231      0.00000
     30       7.5315      0.00000
     31       7.5880      0.00000
     32       8.4781      0.00000

 k-point     3 :       0.3333    0.0000    0.0000
  band No.  band energies     occupation 
      1     -10.5291      2.00000
      2     -10.3641      2.00000
      3      -9.6890      2.00000
      4      -9.5354      2.00000
      5      -5.6845      2.00000
      6      -5.0899      2.00000
      7      -4.5986      2.00000
      8      -4.0690      2.00000
      9      -1.3336      2.00000
     10      -0.5266      2.00000
     11      -0.3445      2.00000
     12       0.0636      2.00000
     13       0.2032      2.00000
     14       0.4862      2.00000
     15       0.7006      2.00000
     16       1.0233      2.00000
     17       1.3809      2.00000
     18       1.7076      2.00000
     19       2.1654      2.00000
     20       2.3404      2.00000
     21       3.8945      0.00000
     22       3.9744      0.00000
     23       4.4501      0.00000
     24       5.0992      0.00000
     25       5.1246      0.00000
     26       5.2796      0.00000
     27       5.7282      0.00000
     28       6.1879      0.00000
     29       6.4841      0.00000
     30       6.8247      0.00000
     31       7.1441      0.00000
     32       8.2020      0.00000

 k-point     4 :       0.5000    0.0000    0.0000
  band No.  band energies     occupation 
      1      -9.9269      2.00000
      2      -9.9269      2.00000
      3      -9.8159      2.00000
      4      -9.8159      2.00000
      5      -5.5434      2.00000
      6      -5.5434      2.00000
      7      -4.9496      2.00000
      8      -4.9496      2.00000
      9      -0.5877      2.00000
     10      -0.5877      2.00000
     11       0.1122      2.00000
     12       0.1122      2.00000
     13       0.5646      2.00000
     14       0.5646      2.00000
     15       0.9118      2.00000
     16       0.9118      2.00000
     17       1.3178      2.00000
     18       1.3178      2.00000
     19       2.0699      2.00000
     20       2.0699      2.00000
     21       3.8931      0.00000
     22       3.8931      0.00000
     23       4.4520      0.00000
     24       4.4520      0.00000
     25       4.9653      0.00000
     26       4.9653      0.00000
     27       5.0991      0.00000
     28       5.0991      0.00000
     29       5.7320      0.00000
     30       5.7320      0.00000
     31       7.5786      0.00000
     32       7.5786      0.00000

 k-point     5 :       0.0000    0.1667    0.0000
  band No.  band energies     occupation 
      1     -11.1022      2.00000
      2     -10.9116      2.00000
      3      -9.9511      2.00000
      4      -9.7152      2.00000
      5      -5.2793      2.00000
      6      -4.6580      2.00000
      7      -3.7087      2.00000
      8      -3.0699      2.00000
      9      -1.8573      2.00000
     10      -0.2842      2.00000
     11      -0.0404      2.00000
     12       0.0738      2.00000
     13       0.1449      2.00000
     14       0.1954      2.00000
     15       1.2740      2.00000
     16       1.3246      2.00000
     17       1.6529      2.00000
     18       1.6886      2.00000
     19       2.0514      2.00000
     20       2.6786      2.00000
     21       3.5418      0.00000
     22       5.1115      0.00000
     23       5.4521      0.00000
     24       5.5704      0.00000
     25       5.6874      0.00000
     26       6.2440      0.00000
     27       6.3147      0.00000
     28       7.1110      0.00000
     29       7.2271      0.00000
     30       7.6350      0.00000
     31       7.8062      0.00000
     32       8.7442      0.00000

 k-point     6 :       0.1667    0.1667    0.0000
  band No.  band energies     occupation 
      1     -10.9201      2.00000
      2     -10.7413      2.00000
      3      -9.8443      2.00000
      4      -9.6438      2.00000
      5      -5.3581      2.00000
      6      -4.7723      2.00000
      7      -3.9491      2.00000
      8      -3.2714      2.00000
      9      -1.6886      2.00000
     10      -1.0649      2.00000
     11      -0.7656      2.00000
     12      -0.2275      2.00000
     13       0.4426      2.00000
     14       0.5779      2.00000
     15       0.8378      2.00000
     16       0.8750      2.00000
     17       1.5841      2.00000
     18       2.0502      2.00000
     19       2.1378      2.00000
     20       2.7610      2.00000
     21       3.7440      0.00000
     22       4.7968      0.00000
     23       5.0836      0.00000
     24       5.5100      0.00000
     25       5.9730      0.00000
     26       6.4864      0.00000
     27       6.5983      0.00000
     28       6.7746      0.00000
     29       7.3120      0.00000
     30       7.4123      0.00000
     31       7.5268      0.00000
     32       8.8210      0.00000

 k-point     7 :       0.1667   -0.1667    0.0000
  band No.  band energies     occupation 
      1     -10.9235      2.00000
      2     -10.7379      2.00000
      3      -9.8513      2.00000
      4      -9.6358      2.00000
      5      -5.3928      2.00000
      6      -4.7353      2.00000
      7      -3.7939      2.00000
      8      -3.4612      2.00000
      9      -1.7142      2.00000
     10      -0.9902      2.00000
     11      -0.8795      2.00000
     12      -0.1567      2.00000
     13       0.4625      2.00000
     14       0.6366      2.00000
     15       0.8539      2.00000
     16       0.8750      2.00000
     17       1.8228      2.00000
     18       1.9090      2.00000
     19       2.2774      2.00000
     20       2.3601      2.00000
     21       3.6986      0.00000
     22       4.8441      0.00000
     23       5.1374      0.00000
     24       5.3296      0.00000
     25       6.1133      0.00000
     26       6.5344      0.00000
     27       6.6567      0.00000
     28       7.2210      0.00000
     29       7.2330      0.00000
     30       7.3877      0.00000
     31       7.4573      0.00000
     32       8.2761      0.00000

 k-point     8 :       0.3333    0.1667    0.0000
  band No.  band energies     occupation 
      1     -10.4351      2.00000
      2     -10.2900      2.00000
      3      -9.6822      2.00000
      4      -9.5679      2.00000
      5      -5.5836      2.00000
      6      -5.0464      2.00000
      7      -4.6928      2.00000
      8      -4.0675      2.00000
      9      -1.2663      2.00000
     10      -1.2158      2.00000
     11      -1.0958      2.00000
     12      -0.3031      2.00000
     13       0.2993      2.00000
     14       0.4963      2.00000
     15       0.5356      2.00000
     16       0.9571      2.00000
     17       1.2553      2.00000
     18       1.6582      2.00000
     19       1.7611      2.00000
     20       2.6517      2.00000
     21       3.8216      0.00000
     22       4.5958      0.00000
     23       4.6879      0.00000
     24       5.1449      0.00000
     25       5.3841      0.00000
     26       5.9191      0.00000
     27       6.2300      0.00000
     28       6.4476      0.00000
     29       6.7310      0.00000
     30       7.4892      0.00000
     31       7.9014      0.00000
     32       8.4618      0.00000

 k-point     9 :       0.3333   -0.1667    0.0000
  band No.  band energies     occupation 
      1     -10.4429      2.00000
      2     -10.2821      2.00000
      3      -9.6947      2.00000
      4      -9.5536      2.00000
      5      -5.6468      2.00000
      6      -4.9788      2.00000
      7      -4.5582      2.00000
      8      -4.2181      2.00000
      9      -1.2638      2.00000
     10      -1.2538      2.00000
     11      -1.1427      2.00000
     12      -0.2606      2.00000
     13       0.2094      2.00000
     14       0.5572      2.00000
     15       0.7894      2.00000
     16       0.9443      2.00000
     17       1.1779      2.00000
     18       1.8134      2.00000
     19       2.0024      2.00000
     20       2.0475      2.00000
     21       3.8228      0.00000
     22       4.6744      0.00000
     23       4.7066      0.00000
     24       5.0605      0.00000
     25       5.2417      0.00000
     26       5.7842      0.00000
     27       6.2289      0.00000
     28       7.1154      0.00000
     29       7.3603      0.00000
     30       7.4984      0.00000
     31       7.5446      0.00000
     32       7.8754      0.00000

 k-point    10 :       0.5000    0.1667    0.0000
  band No.  band energies     occupation 
      1      -9.8869      2.00000
      2      -9.8806      2.00000
      3      -9.7851      2.00000
      4      -9.7794      2.00000
      5      -5.4908      2.00000
      6      -5.4177      2.00000
      7      -4.9247      2.00000
      8      -4.8474      2.00000
      9      -0.8628      2.00000
     10      -0.7744      2.00000
     11      -0.5241      2.00000
     12      -0.4851      2.00000
     13      -0.0736      2.00000
     14       0.2278      2.00000
     15       0.3248      2.00000
     16       0.3583      2.00000
     17       1.3227      2.00000
     18       1.3671      2.00000
     19       1.9472      2.00000
     20       2.3005      2.00000
     21       4.0618      0.00000
     22       4.0634      0.00000
     23       4.8238      0.00000
     24       4.9279      0.00000
     25       5.5786      0.00000
     26       5.9962      0.00000
     27       6.0615      0.00000
     28       6.1916      0.00000
     29       6.6217      0.00000
     30       6.6313      0.00000
     31       6.9959      0.00000
     32       7.7948      0.00000

 k-point    11 :       0.0000    0.3333    0.0000
  band No.  band energies     occupation 
      1     -10.7785      2.00000
      2     -10.6309      2.00000
      3     -10.0335      2.00000
      4      -9.9396      2.00000
      5      -5.5476      2.00000
      6      -4.9039      2.00000
      7      -4.6881      2.00000
      8      -3.9763      2.00000
      9      -1.3410      2.00000
     10       0.2493      2.00000
     11       0.4824      2.00000
     12       0.5227      2.00000
     13       0.6187      2.00000
     14       0.8910      2.00000
     15       1.2455      2.00000
     16       1.2759      2.00000
     17       1.2782      2.00000
     18       2.3366      2.00000
     19       2.6714      2.00000
     20       2.7496      2.00000
     21       4.1399      0.00000
     22       4.2152      0.00000
     23       4.5546      0.00000
     24       5.3043      0.00000
     25       5.4977      0.00000
     26       5.6248      0.00000
     27       5.7555      0.00000
     28       6.3539      0.00000
     29       6.5772      0.00000
     30       6.6869      0.00000
     31       7.6683      0.00000
     32       8.7187      0.00000

 k-point    12 :       0.1667    0.3333    0.0000
  band No.  band energies     occupation 
      1     -10.6124      2.00000
      2     -10.4799      2.00000
      3      -9.9201      2.00000
      4      -9.8482      2.00000
      5      -5.4699      2.00000
      6      -4.8622      2.00000
      7      -4.6999      2.00000
      8      -3.9648      2.00000
      9      -1.1567      2.00000
     10      -1.0622      2.00000
     11      -0.6962      2.00000
     12      -0.1744      2.00000
     13       0.2230      2.00000
     14       0.3620      2.00000
     15       0.7814      2.00000
     16       1.3935      2.00000
     17       1.9184      2.00000
     18       1.9920      2.00000
     19       2.2914      2.00000
     20       2.6956      2.00000
     21       4.1577      0.00000
     22       4.8467      0.00000
     23       5.1689      0.00000
     24       5.4462      0.00000
     25       5.4663      0.00000
     26       6.0668      0.00000
     27       6.4117      0.00000
     28       6.8189      0.00000
     29       6.9552      0.00000
     30       7.5349      0.00000
     31       7.7035      0.00000
     32       8.7348      0.00000

 k-point    13 :       0.1667   -0.3333    0.0000
  band No.  band energies     occupation 
      1     -10.6196      2.00000
      2     -10.4725      2.00000
      3      -9.9312      2.00000
      4      -9.8362      2.00000
      5      -5.5123      2.00000
      6      -4.8204      2.00000
      7      -4.6098      2.00000
      8      -4.0652      2.00000
      9      -1.2256      2.00000
     10      -0.9685      2.00000
     11      -0.8322      2.00000
     12      -0.0347      2.00000
     13       0.0961      2.00000
     14       0.6160      2.00000
     15       0.7571      2.00000
     16       1.4041      2.00000
     17       1.8093      2.00000
     18       2.0449      2.00000
     19       2.3285      2.00000
     20       2.5148      2.00000
     21       4.1612      0.00000
     22       4.8005      0.00000
     23       5.3291      0.00000
     24       5.3855      0.00000
     25       5.5769      0.00000
     26       5.7355      0.00000
     27       6.3482      0.00000
     28       7.0916      0.00000
     29       7.2745      0.00000
     30       7.6051      0.00000
     31       7.8300      0.00000
     32       8.1178      0.00000

 k-point    14 :       0.3333    0.3333    0.0000
  band No.  band energies     occupation 
      1     -10.1921      2.00000
      2     -10.0947      2.00000
      3      -9.7223      2.00000
      4      -9.6750      2.00000
      5      -5.3724      2.00000
      6      -4.8986      2.00000
      7      -4.8756      2.00000
      8      -4.2285      2.00000
      9      -1.8563      2.00000
     10      -1.5471      2.00000
     11      -1.1198      2.00000
     12      -0.8131      2.00000
     13      -0.6026      2.00000
     14       0.1366      2.00000
     15       0.1454      2.00000
     16       0.6222      2.00000
     17       0.6830      2.00000
     18       1.6026      2.00000
     19       1.6487      2.00000
     20       2.6563      2.00000
     21       4.0937      0.00000
     22       5.3619      0.00000
     23       5.3862      0.00000
     24       6.1780      0.00000
     25       6.3825      0.00000
     26       6.6848      0.00000
     27       6.7668      0.00000
     28       7.4105      0.00000
     29       7.7446      0.00000
     30       8.2158      0.00000
     31       8.2854      0.00000
     32       9.0681      0.00000

 k-point    15 :       0.3333   -0.3333    0.0000
  band No.  band energies     occupation 
      1     -10.2089      2.00000
      2     -10.0780      2.00000
      3      -9.7363      2.00000
      4      -9.6593      2.00000
      5      -5.4812      2.00000
      6      -4.7594      2.00000
      7      -4.6976      2.00000
      8      -4.4466      2.00000
      9      -1.8157      2.00000
     10      -1.6290      2.00000
     11      -1.1799      2.00000
     12      -0.8118      2.00000
     13      -0.5259      2.00000
     14      -0.1066      2.00000
     15       0.3570      2.00000
     16       0.7214      2.00000
     17       0.8945      2.00000
     18       1.5297      2.00000
     19       1.9445      2.00000
     20       2.0093      2.00000
     21       4.0261      0.00000
     22       5.4900      0.00000
     23       5.8345      0.00000
     24       5.9004      0.00000
     25       6.1423      0.00000
     26       6.9339      0.00000
     27       7.0772      0.00000
     28       7.6225      0.00000
     29       7.7609      0.00000
     30       7.8239      0.00000
     31       8.5082      0.00000
     32       8.8887      0.00000

 k-point    16 :       0.5000    0.3333    0.0000
  band No.  band energies     occupation 
      1      -9.7989      2.00000
      2      -9.7824      2.00000
      3      -9.7233      2.00000
      4      -9.7078      2.00000
      5      -5.3356      2.00000
      6      -5.1694      2.00000
      7      -4.8439      2.00000
      8      -4.6678      2.00000
      9      -1.4516      2.00000
     10      -1.3986      2.00000
     11      -1.2665      2.00000
     12      -1.2531      2.00000
     13      -0.6572      2.00000
     14      -0.5744      2.00000
     15      -0.2154      2.00000
     16      -0.0816      2.00000
     17       0.7124      2.00000
     18       0.9777      2.00000
     19       1.6231      2.00000
     20       2.3826      2.00000
     21       4.6701      0.00000
     22       4.9025      0.00000
     23       5.9767      0.00000
     24       6.3880      0.00000
     25       6.5776      0.00000
     26       6.7403      0.00000
     27       7.1109      0.00000
     28       7.7085      0.00000
     29       7.9740      0.00000
     30       8.0155      0.00000
     31       8.4789      0.00000
     32       8.5272      0.00000

 k-point    17 :       0.0000    0.5000    0.0000
  band No.  band energies     occupation 
      1     -10.3385      2.00000
      2     -10.3385      2.00000
      3     -10.2835      2.00000
      4     -10.2835      2.00000
      5      -5.3753      2.00000
      6      -5.3753      2.00000
      7      -4.6788      2.00000
      8      -4.6788      2.00000
      9      -0.5727      2.00000
     10      -0.5727      2.00000
     11       0.9585      2.00000
     12       0.9585      2.00000
     13       0.9703      2.00000
     14       0.9703      2.00000
     15       1.1906      2.00000
     16       1.1906      2.00000
     17       2.1754      2.00000
     18       2.1754      2.00000
     19       2.5861      2.00000
     20       2.5861      2.00000
     21       4.4705      0.00000
     22       4.4705      0.00000
     23       4.6757      0.00000
     24       4.6757      0.00000
     25       5.0827      0.00000
     26       5.0827      0.00000
     27       5.8521      0.00000
     28       5.8521      0.00000
     29       5.9599      0.00000
     30       5.9599      0.00000
     31       8.2615      0.00000
     32       8.2615      0.00000

 k-point    18 :       0.1667    0.5000    0.0000
  band No.  band energies     occupation 
      1     -10.2125      2.00000
      2     -10.2013      2.00000
      3     -10.1599      2.00000
      4     -10.1488      2.00000
      5      -5.3013      2.00000
      6      -5.2492      2.00000
      7      -4.6286      2.00000
      8      -4.5767      2.00000
      9      -0.6160      2.00000
     10      -0.6029      2.00000
     11      -0.5055      2.00000
     12      -0.3561      2.00000
     13      -0.2494      2.00000
     14      -0.2047      2.00000
     15       1.0466      2.00000
     16       1.1720      2.00000
     17       1.8590      2.00000
     18       2.2341      2.00000
     19       2.4965      2.00000
     20       2.5195      2.00000
     21       4.5103      0.00000
     22       4.5580      0.00000
     23       5.3064      0.00000
     24       5.4783      0.00000
     25       5.7680      0.00000
     26       5.8752      0.00000
     27       6.6671      0.00000
     28       6.8066      0.00000
     29       7.0140      0.00000
     30       7.0584      0.00000
     31       7.8243      0.00000
     32       8.2955      0.00000

[...]
     32       7.7287      0.00000

 k-point    32 :       0.1667    0.3333    0.5000
  band No.  band energies     occupation 
      1     -10.5515      2.00000
      2     -10.5515      2.00000
      3      -9.8786      2.00000
      4      -9.8786      2.00000
      5      -5.2544      2.00000
      6      -5.2544      2.00000
      7      -4.2796      2.00000
      8      -4.2796      2.00000
      9      -0.9976      2.00000
     10      -0.9976      2.00000
     11      -0.3666      2.00000
     12      -0.3666      2.00000
     13       0.1950      2.00000
     14       0.1950      2.00000
     15       0.9823      2.00000
     16       0.9823      2.00000
     17       2.0100      2.00000
     18       2.0100      2.00000
     19       2.2517      2.00000
     20       2.2517      2.00000
     21       4.9513      0.00000
     22       4.9513      0.00000
     23       5.2398      0.00000
     24       5.2398      0.00000
     25       5.7580      0.00000
     26       5.7580      0.00000
     27       6.6432      0.00000
     28       6.6432      0.00000
     29       7.3640      0.00000
     30       7.3640      0.00000
     31       7.8202      0.00000
     32       7.8202      0.00000

 k-point    33 :       0.1667   -0.3333    0.5000
  band No.  band energies     occupation 
      1     -10.5531      2.00000
      2     -10.5531      2.00000
      3      -9.8765      2.00000
      4      -9.8765      2.00000
      5      -5.2588      2.00000
      6      -5.2588      2.00000
      7      -4.2716      2.00000
      8      -4.2716      2.00000
      9      -0.9635      2.00000
     10      -0.9635      2.00000
     11      -0.4436      2.00000
     12      -0.4436      2.00000
     13       0.1517      2.00000
     14       0.1517      2.00000
     15       1.0979      2.00000
     16       1.0979      2.00000
     17       1.9515      2.00000
     18       1.9515      2.00000
     19       2.3021      2.00000
     20       2.3021      2.00000
     21       4.8686      0.00000
     22       4.8686      0.00000
     23       5.3883      0.00000
     24       5.3883      0.00000
     25       5.7724      0.00000
     26       5.7724      0.00000
     27       6.5209      0.00000
     28       6.5209      0.00000
     29       7.2049      0.00000
     30       7.2049      0.00000
     31       7.8040      0.00000
     32       7.8040      0.00000

 k-point    34 :       0.3333    0.3333    0.5000
  band No.  band energies     occupation 
      1     -10.1468      2.00000
      2     -10.1468      2.00000
      3      -9.6956      2.00000
      4      -9.6956      2.00000
      5      -5.2127      2.00000
      6      -5.2127      2.00000
      7      -4.4946      2.00000
      8      -4.4946      2.00000
      9      -1.7668      2.00000
     10      -1.7668      2.00000
     11      -0.8716      2.00000
     12      -0.8716      2.00000
     13      -0.2623      2.00000
     14      -0.2623      2.00000
     15       0.4392      2.00000
     16       0.4392      2.00000
     17       1.1859      2.00000
     18       1.1859      2.00000
     19       1.7984      2.00000
     20       1.7984      2.00000
     21       5.1903      0.00000
     22       5.1903      0.00000
     23       5.5786      0.00000
     24       5.5786      0.00000
     25       6.7346      0.00000
     26       6.7346      0.00000
     27       7.2286      0.00000
     28       7.2286      0.00000
     29       7.5140      0.00000
     30       7.5140      0.00000
     31       8.8637      0.00000
     32       8.8637      0.00000

 k-point    35 :       0.3333   -0.3333    0.5000
  band No.  band energies     occupation 
      1     -10.1504      2.00000
      2     -10.1504      2.00000
      3      -9.6911      2.00000
      4      -9.6911      2.00000
      5      -5.2273      2.00000
      6      -5.2272      2.00000
      7      -4.4744      2.00000
      8      -4.4744      2.00000
      9      -1.7371      2.00000
     10      -1.7371      2.00000
     11      -0.9685      2.00000
     12      -0.9685      2.00000
     13      -0.2494      2.00000
     14      -0.2494      2.00000
     15       0.4859      2.00000
     16       0.4859      2.00000
     17       1.1198      2.00000
     18       1.1198      2.00000
     19       1.9285      2.00000
     20       1.9285      2.00000
     21       5.0142      0.00000
     22       5.0142      0.00000
     23       5.6676      0.00000
     24       5.6676      0.00000
     25       6.5322      0.00000
     26       6.5322      0.00000
     27       7.3935      0.00000
     28       7.3935      0.00000
     29       7.6048      0.00000
     30       7.6048      0.00000
     31       8.8122      0.00000
     32       8.8122      0.00000

 k-point    36 :       0.5000    0.3333    0.5000
  band No.  band energies     occupation 
      1      -9.7851      2.00000
      2      -9.7851      2.00000
      3      -9.7217      2.00000
      4      -9.7217      2.00000
      5      -5.2316      2.00000
      6      -5.2316      2.00000
      7      -4.7857      2.00000
      8      -4.7857      2.00000
      9      -1.4288      2.00000
     10      -1.4288      2.00000
     11      -1.2810      2.00000
     12      -1.2810      2.00000
     13      -0.5008      2.00000
     14      -0.5008      2.00000
     15      -0.2712      2.00000
     16      -0.2712      2.00000
     17       1.2950      2.00000
     18       1.2950      2.00000
     19       1.4309      2.00000
     20       1.4309      2.00000
     21       5.1445      0.00000
     22       5.1445      0.00000
     23       6.1345      0.00000
     24       6.1345      0.00000
     25       6.5692      0.00000
     26       6.5692      0.00000
     27       7.1645      0.00000
     28       7.1645      0.00000
     29       8.1863      0.00000
     30       8.1863      0.00000
     31       8.4436      0.00000
     32       8.4436      0.00000

 k-point    37 :       0.0000    0.5000    0.5000
  band No.  band energies     occupation 
      1     -10.3117      2.00000
      2     -10.3117      2.00000
      3     -10.3112      2.00000
      4     -10.3112      2.00000
      5      -5.2831      2.00000
      6      -5.2831      2.00000
      7      -4.8120      2.00000
      8      -4.8120      2.00000
      9       0.0661      2.00000
     10       0.0661      2.00000
     11       0.2963      2.00000
     12       0.2963      2.00000
     13       0.9679      2.00000
     14       0.9679      2.00000
     15       0.9764      2.00000
     16       0.9764      2.00000
     17       2.3262      2.00000
     18       2.3262      2.00000
     19       2.5738      2.00000
     20       2.5738      2.00000
     21       4.4320      0.00000
     22       4.4320      0.00000
     23       4.5376      0.00000
     24       4.5376      0.00000
     25       5.7417      0.00000
     26       5.7417      0.00000
     27       5.8561      0.00000
     28       5.8561      0.00000
     29       6.2671      0.00000
     30       6.2671      0.00000
     31       7.3468      0.00000
     32       7.3468      0.00000

 k-point    38 :       0.1667    0.5000    0.5000
  band No.  band energies     occupation 
      1     -10.1872      2.00000
      2     -10.1872      2.00000
      3     -10.1748      2.00000
      4     -10.1748      2.00000
      5      -5.1978      2.00000
      6      -5.1978      2.00000
      7      -4.7135      2.00000
      8      -4.7135      2.00000
      9      -0.5775      2.00000
     10      -0.5775      2.00000
     11      -0.4222      2.00000
     12      -0.4222      2.00000
     13       0.2796      2.00000
     14       0.2796      2.00000
     15       0.5014      2.00000
     16       0.5014      2.00000
     17       2.0529      2.00000
     18       2.0529      2.00000
     19       2.3005      2.00000
     20       2.3005      2.00000
     21       5.1779      0.00000
     22       5.1779      0.00000
     23       5.4199      0.00000
     24       5.4199      0.00000
     25       5.7539      0.00000
     26       5.7539      0.00000
     27       6.7749      0.00000
     28       6.7749      0.00000
     29       7.0719      0.00000
     30       7.0719      0.00000
     31       7.5138      0.00000
     32       7.5138      0.00000

 k-point    39 :       0.3333    0.5000    0.5000
  band No.  band energies     occupation 
      1      -9.9004      2.00000
      2      -9.9004      2.00000
      3      -9.8682      2.00000
      4      -9.8682      2.00000
      5      -5.1028      2.00000
      6      -5.1028      2.00000
      7      -4.6187      2.00000
      8      -4.6187      2.00000
      9      -1.6433      2.00000
     10      -1.6433      2.00000
     11      -1.5030      2.00000
     12      -1.5030      2.00000
     13      -0.1006      2.00000
     14      -0.1006      2.00000
     15       0.0538      2.00000
     16       0.0538      2.00000
     17       1.2502      2.00000
     18       1.2502      2.00000
     19       1.4806      2.00000
     20       1.4806      2.00000
     21       5.2879      0.00000
     22       5.2879      0.00000
     23       6.5952      0.00000
     24       6.5952      0.00000
     25       6.9033      0.00000
     26       6.9033      0.00000
     27       7.3546      0.00000
     28       7.3546      0.00000
     29       8.4793      0.00000
     30       8.4793      0.00000
     31       8.6873      0.00000
     32       8.6873      0.00000

 k-point    40 :       0.5000    0.5000    0.5000
  band No.  band energies     occupation 
      1      -9.7344      2.00000
      2      -9.7344      2.00000
      3      -9.6888      2.00000
      4      -9.6888      2.00000
      5      -5.1405      2.00000
      6      -5.1405      2.00000
      7      -4.6916      2.00000
      8      -4.6916      2.00000
      9      -1.6425      2.00000
     10      -1.6425      2.00000
     11      -1.5578      2.00000
     12      -1.5578      2.00000
     13      -0.8777      2.00000
     14      -0.8777      2.00000
     15      -0.6690      2.00000
     16      -0.6690      2.00000
     17       1.2871      2.00000
     18       1.2871      2.00000
     19       1.4650      2.00000
     20       1.4650      2.00000
     21       5.0413      0.00000
     22       5.0413      0.00000
     23       6.4257      0.00000
     24       6.4257      0.00000
     25       7.5550      0.00000
     26       7.5550      0.00000
     27       7.7823      0.00000
     28       7.7823      0.00000
     29       8.6907      0.00000
     30       8.6907      0.00000
     31       9.3854      0.00000
     32       9.3854      0.00000


--------------------------------------------------------------------------------------------------------


 soft charge-density along one line, spin component            1
         0         1         2         3         4         5         6         7         8         9
 total charge-density along one line
 
 pseudopotential strength for first ion, spin component:            1
 14.619  18.242   0.040   0.045  -0.001   0.073   0.081  -0.001
 18.242  22.778   0.051   0.057  -0.001   0.092   0.102  -0.001
  0.040   0.051   3.242  -0.002  -0.000   5.520  -0.004  -0.000
  0.045   0.057  -0.002   3.239   0.000  -0.004   5.515   0.000
 -0.001  -0.001  -0.000   0.000   3.243  -0.000   0.000   5.522
  0.073   0.092   5.520  -0.004  -0.000   9.456  -0.007  -0.000
  0.081   0.102  -0.004   5.515   0.000  -0.007   9.448   0.000
 -0.001  -0.001  -0.000   0.000   5.522  -0.000   0.000   9.461
 -0.000  -0.000  -0.000   0.000   0.006  -0.000   0.000   0.013
 -0.005  -0.006   0.011   0.013   0.000   0.021   0.023   0.000
 -0.004  -0.005  -0.003   0.011  -0.000  -0.007   0.021  -0.000
  0.000   0.000   0.000  -0.000   0.012   0.000  -0.001   0.021
  0.002   0.002  -0.012   0.000  -0.000  -0.022   0.000  -0.000
 total augmentation occupancy for first ion, spin component:            1
  2.735  -0.701   0.345   0.344   0.007  -0.065  -0.061  -0.003  -0.000  -0.013  -0.003  -0.003   0.009
 -0.701   0.657  -0.434  -0.466  -0.005   0.069   0.072   0.001  -0.001   0.006   0.006   0.002  -0.004
  0.345  -0.434   1.230   0.047  -0.001  -0.200   0.005   0.000   0.000   0.042  -0.098   0.000   0.000
  0.344  -0.466   0.047   1.344  -0.011   0.005  -0.216   0.003   0.001  -0.016   0.098   0.007  -0.005
  0.007  -0.005  -0.001  -0.011   1.244  -0.000   0.003  -0.214   0.145  -0.001   0.002   0.034   0.000
 -0.065   0.069  -0.200   0.005  -0.000   0.037  -0.003   0.000  -0.000  -0.007   0.017   0.000   0.000
 -0.061   0.072   0.005  -0.216   0.003  -0.003   0.040  -0.001   0.000   0.003  -0.017  -0.001   0.001
 -0.003   0.001   0.000   0.003  -0.214   0.000  -0.001   0.041  -0.025   0.000  -0.000  -0.006  -0.000
 -0.000  -0.001   0.000   0.001   0.145  -0.000   0.000  -0.025   0.031   0.000  -0.000   0.002  -0.000
 -0.013   0.006   0.042  -0.016  -0.001  -0.007   0.003   0.000   0.000   0.011  -0.007   0.001   0.001
 -0.003   0.006  -0.098   0.098   0.002   0.017  -0.017  -0.000  -0.000  -0.007   0.031  -0.001  -0.002
 -0.003   0.002   0.000   0.007   0.034   0.000  -0.001  -0.006   0.002   0.001  -0.001   0.010  -0.000
  0.009  -0.004   0.000  -0.005   0.000   0.000   0.001  -0.000  -0.000   0.001  -0.002  -0.000   0.008


------------------------ aborting loop because EDIFF is reached ----------------------------------------


    CHARGE:  cpu time      0.0054: real time      0.0054
    FORLOC:  cpu time      0.0002: real time      0.0002
    FORNL :  cpu time      0.0271: real time      0.0272
    STRESS:  cpu time      0.2787: real time      0.2801
    FORCOR:  cpu time      0.0067: real time      0.0068
    FORHAR:  cpu time      0.0016: real time      0.0016
    MIXING:  cpu time      0.0015: real time      0.0015
    OFIELD:  cpu time      0.0000: real time      0.0000

  FORCE on cell =-STRESS in cart. coord.  units (eV):
  Direction    XX          YY          ZZ          XY          YZ          ZX
  --------------------------------------------------------------------------------------
  Alpha Z    83.74936    83.74936    83.74936
  Ewald    -407.62216  -452.31840  -523.35925     5.69672    -0.00000     0.00000
  Hartree    79.34257    62.59218    13.72957     2.75110    -0.00000     0.00000
  E(xc)    -140.98304  -140.98688  -141.42350     0.03296     0.00000     0.00000
  Local    -232.56657  -177.07267   -61.25823    -8.95109     0.00000    -0.00000
  n-local   240.44869   239.82623   241.96361     0.06911    -0.00000     0.00000
  augment   -11.38970   -11.76430   -12.15540    -0.04589     0.00000     0.00000
  Kinetic   389.74953   396.22874   399.35746     0.78224     0.00000    -0.00000
  Fock        0.00000     0.00000     0.00000     0.00000     0.00000     0.00000
  -------------------------------------------------------------------------------------
  Total       0.72868     0.25425     0.60362     0.33514     0.00000    -0.00000
  in kB       5.77033     2.01335     4.78002     2.65396     0.00000    -0.00000
  external pressure =        4.19 kB  Pullay stress =        0.00 kB


 VOLUME and BASIS-vectors are now :
 -----------------------------------------------------------------------------
  energy-cutoff  :      360.00
  volume of cell :      202.32
      direct lattice vectors                 reciprocal lattice vectors
     3.858100176  0.000000000  0.000000000     0.259194929  0.000000000  0.000000000
     0.000000000  4.526575088  0.000000000     0.000000000  0.220917577  0.000000000
     0.000000000  0.000000000 11.585176468     0.000000000  0.000000000  0.086317200

  length of vectors
     3.858100176  4.526575088 11.585176468     0.259194929  0.220917577  0.086317200


 FORCES acting on ions
    electron-ion (+dipol)            ewald-force                    non-local-force                 convergence-correction
 -----------------------------------------------------------------------------------------------
   0.424E+00 0.145E+02 0.301E+02   -.338E+00 -.169E+02 -.330E+02   -.300E-01 0.246E+01 0.302E+01   0.673E-04 0.495E-04 -.781E-03
   0.424E+00 0.145E+02 -.301E+02   -.338E+00 -.169E+02 0.330E+02   -.300E-01 0.246E+01 -.302E+01   0.671E-04 0.495E-04 0.782E-03
   -.424E+00 -.145E+02 -.301E+02   0.338E+00 0.169E+02 0.330E+02   0.302E-01 -.246E+01 -.302E+01   -.670E-04 -.495E-04 0.781E-03
   -.424E+00 -.145E+02 0.301E+02   0.338E+00 0.169E+02 -.330E+02   0.302E-01 -.246E+01 0.302E+01   -.672E-04 -.494E-04 -.782E-03
   0.498E-03 -.167E+02 -.374E+02   -.592E-01 0.182E+02 0.392E+02   0.810E-01 -.145E+01 -.189E+01   -.143E-03 -.368E-03 0.104E-02
   0.495E-03 -.167E+02 0.374E+02   -.592E-01 0.182E+02 -.392E+02   0.810E-01 -.145E+01 0.189E+01   -.142E-03 -.367E-03 -.104E-02
   -.465E-03 0.167E+02 0.374E+02   0.592E-01 -.182E+02 -.392E+02   -.816E-01 0.145E+01 0.189E+01   0.141E-03 0.367E-03 -.104E-02
   -.464E-03 0.167E+02 -.374E+02   0.592E-01 -.182E+02 0.392E+02   -.816E-01 0.145E+01 -.189E+01   0.141E-03 0.368E-03 0.104E-02
 -----------------------------------------------------------------------------------------------
   0.620E-04 -.993E-05 0.117E-05   0.461E-14 0.355E-14 -.711E-14   -.740E-03 -.551E-03 0.709E-07   -.245E-05 0.984E-06 -.136E-05
 
 
 POSITION                                       TOTAL-FORCE (eV/Angst)
 -----------------------------------------------------------------------------------
      1.80324      3.71578      1.52892         0.056413     -0.008592      0.145630
      3.73229      1.45249      4.26367         0.056414     -0.008593     -0.145628
      2.89357      4.09092     10.05626        -0.056086      0.008894     -0.145660
      0.96452      1.82763      7.32150        -0.056086      0.008895      0.145660
      1.80324      3.18718      4.06767         0.022257      0.074183     -0.059920
      3.73229      0.92389      1.72492         0.022257      0.074184      0.059919
      2.89357      0.09295      7.51751        -0.022584     -0.074485      0.060160
      0.96452      2.35624      9.86026        -0.022585     -0.074485     -0.060160
 -----------------------------------------------------------------------------------
    total drift:                               -0.000681     -0.000560     -0.000000


--------------------------------------------------------------------------------------------------------



  FREE ENERGIE OF THE ION-ELECTRON SYSTEM (eV)
  ---------------------------------------------------
  free  energy   TOTEN  =       -33.66962937 eV

  energy  without entropy=      -33.66962937  energy(sigma->0) =      -33.66962937
 


--------------------------------------------------------------------------------------------------------


    POTLOK:  cpu time      0.2280: real time      0.2285


--------------------------------------------------------------------------------------------------------


     LOOP+:  cpu time      7.7002: real time      7.7394
    4ORBIT:  cpu time      0.0000: real time      0.0000

 total amount of memory used by VASP MPI-rank0    37119. kBytes
=======================================================================

   base      :      30000. kBytes
   nonl-proj :       5406. kBytes
   fftplans  :        334. kBytes
   grid      :        503. kBytes
   one-center:         16. kBytes
   wavefun   :        860. kBytes
 
  
  
 General timing and accounting informations for this job:
 ========================================================
  
                  Total CPU time used (sec):        9.333
                            User time (sec):        9.071
                          System time (sec):        0.262
                         Elapsed time (sec):        9.636
  
                   Maximum memory used (kb):      174936.
                   Average memory used (kb):          N/A
  
                          Minor page faults:        17009
                          Major page faults:           39
                 Voluntary context switches:         1918
