 running  128 mpi-ranks, with    1 threads/rank, on    2 nodes
 distrk:  each k-point on   64 cores,    2 groups
 distr:  one band on    8 cores,    8 groups
 vasp.6.4.2 20Jul23 (build Oct 12 2023 10:31:02) complex                         
 POSCAR found type information on POSCAR GeSe
 POSCAR found :  2 types and      72 ions
 Reading from existing POTCAR
 -----------------------------------------------------------------------------
|                                                                             |
|           W    W    AA    RRRRR   N    N  II  N    N   GGGG   !!!           |
|           W    W   A  A   R    R  NN   N  II  NN   N  G    G  !!!           |
|           W    W  A    A  R    R  N N  N  II  N N  N  G       !!!           |
|           W WW W  AAAAAA  RRRRR   N  N N  II  N  N N  G  GGG   !            |
|           WW  WW  A    A  R   R   N   NN  II  N   NN  G    G                |
|           W    W  A    A  R    R  N    N  II  N    N   GGGG   !!!           |
|                                                                             |
|     You use a magnetic or noncollinear calculation, but did not specify     |
|     the initial magnetic moment with the MAGMOM tag. Note that a            |
|     default of 1 will be used for all atoms. This ferromagnetic setup       |
|     may break the symmetry of the crystal, in particular it may rule        |
|     out finding an antiferromagnetic solution. Thence, we recommend         |
|     setting the initial magnetic moment manually or verifying carefully     |
|     that this magnetic setup is desired.                                    |
|                                                                             |
 -----------------------------------------------------------------------------

 scaLAPACK will be used
 Reading from existing POTCAR
 -----------------------------------------------------------------------------
|                                                                             |
|               ----> ADVICE to this user running VASP <----                  |
|                                                                             |
|     You have a (more or less) 'large supercell' and for larger cells it     |
|     might be more efficient to use real-space projection operators.         |
|     Therefore, try LREAL= Auto in the INCAR file.                           |
|     Mind: For very accurate calculation, you might also keep the            |
|     reciprocal projection scheme (i.e. LREAL=.FALSE.).                      |
|                                                                             |
 -----------------------------------------------------------------------------

 LDA part: xc-table for Pade appr. of Perdew
 -----------------------------------------------------------------------------
|                                                                             |
|           W    W    AA    RRRRR   N    N  II  N    N   GGGG   !!!           |
|           W    W   A  A   R    R  NN   N  II  NN   N  G    G  !!!           |
|           W    W  A    A  R    R  N N  N  II  N N  N  G       !!!           |
|           W WW W  AAAAAA  RRRRR   N  N N  II  N  N N  G  GGG   !            |
|           WW  WW  A    A  R   R   N   NN  II  N   NN  G    G                |
|           W    W  A    A  R    R  N    N  II  N    N   GGGG   !!!           |
|                                                                             |
|     The number of bands has been changed from the values supplied in        |
|     the INCAR file. This is a result of running the parallel version.       |
|     The orbitals not found in the WAVECAR file will be initialized with     |
|     random numbers, which is usually adequate. For correlated               |
|     calculations, however, you should redo the groundstate calculation.     |
|     I found NBANDS = 220. Now, NBANDS = 224.                                |
|                                                                             |
 -----------------------------------------------------------------------------

 POSCAR, INCAR and KPOINTS ok, starting setup
 FFT: planning ... GRIDC
 FFT: planning ... GRID_SOFT
 FFT: planning ... GRID
 WAVECAR not read
 WARNING: random wavefunctions but no delay for mixing, default for NELMDL
 entering main loop
       N       E                     dE             d eps       ncg     rms          rms(c)
DAV:   1     0.182395159608E+04    0.18240E+04   -0.14176E+05  7168   0.135E+03
DAV:   2    -0.647237119263E+02   -0.18887E+04   -0.18134E+04  8504   0.205E+02
DAV:   3    -0.281551923121E+03   -0.21683E+03   -0.21115E+03  8576   0.692E+01
DAV:   4    -0.289347381216E+03   -0.77955E+01   -0.77109E+01  8808   0.130E+01
DAV:   5    -0.289625368051E+03   -0.27799E+00   -0.27726E+00  9040   0.210E+00    0.295E+01
DAV:   6    -0.289223982039E+03    0.40139E+00   -0.25937E+01  7920   0.764E+00    0.175E+01
DAV:   7    -0.296862629163E+03   -0.76386E+01   -0.87397E+00  7968   0.453E+00    0.912E+00
DAV:   8    -0.300015629311E+03   -0.31530E+01   -0.17718E+00  8224   0.230E+00    0.328E+00
DAV:   9    -0.300359454722E+03   -0.34383E+00   -0.40350E-01  9008   0.998E-01    0.147E+00
DAV:  10    -0.300460556408E+03   -0.10110E+00   -0.88621E-02  8192   0.452E-01    0.726E-01
DAV:  11    -0.300491992034E+03   -0.31436E-01   -0.33638E-02  8848   0.279E-01    0.293E-01
DAV:  12    -0.300495790157E+03   -0.37981E-02   -0.48156E-03  8584   0.120E-01    0.109E-01
DAV:  13    -0.300495961606E+03   -0.17145E-03   -0.60126E-04  9688   0.386E-02    0.431E-02
DAV:  14    -0.300495979063E+03   -0.17457E-04   -0.92098E-05  8328   0.189E-02    0.174E-02
DAV:  15    -0.300495982812E+03   -0.37487E-05   -0.17073E-05  8696   0.909E-03    0.807E-03
DAV:  16    -0.300495983737E+03   -0.92512E-06   -0.17013E-06  4984   0.287E-03
   1 F= -.30049598E+03 E0= -.30049598E+03  d E =-.310008E-12  mag=     0.0004
