 vasp.6.4.2 20Jul23 (build Oct 12 2023 10:31:02) complex                         
 executed on              LinuxNV date 2025.05.17  16:45:48
 running  160 mpi-ranks, with    1 threads/rank, on   10 nodes
 distrk:  each k-point on   80 cores,    2 groups
 distr:  one band on NCORE=   5 cores,   16 groups


--------------------------------------------------------------------------------------------------------


 INCAR:
   ENCUT = 360.000000
   SIGMA = 0.050000
   EDIFF = 1.00e-06
   ALGO = Normal
   GGA = PE
   PREC = Normal
   SYSTEM = ./
   ICHARG = 2
   ISMEAR = 0
   ISPIN = 1
   ISTART = 0
   ISYM = 0
   KPAR = 2
   LMAXMIX = 4
   NELM = 100
   NPAR = 16
   LASPH = .TRUE.
   LCHARG = .FALSE.
   LWAVE = .FALSE.

 POTCAR:    PAW_PBE Ge 05Jan2001                  
 POTCAR:    PAW_PBE Se 06Sep2000                  
 POTCAR:    PAW_PBE Ge 05Jan2001                  
   VRHFIN =Ge: s2p2                                                                                 
   LEXCH  = PE                                                                                      
   EATOM  =   104.9960 eV,    7.7170 Ry                                                             
                                                                                                    
   TITEL  = PAW_PBE Ge 05Jan2001                                                                    
   LULTRA =        F    use ultrasoft PP ?                                                          
   IUNSCR =        1    unscreen: 0-lin 1-nonlin 2-no                                               
   RPACOR =    2.170    partial core radius                                                         
   POMASS =   72.610; ZVAL   =    4.000    mass and valenz                                          
   RCORE  =    2.300    outmost cutoff radius                                                       
   RWIGS  =    2.300; RWIGS  =    1.217    wigner-seitz radius (au A)                               
   ENMAX  =  173.807; ENMIN  =  130.355 eV                                                          
   ICORE  =        3    local potential                                                             
   LCOR   =        T    correct aug charges                                                         
   LPAW   =        T    paw PP                                                                      
   EAUG   =  385.843                                                                                
   DEXC   =    0.000                                                                                
   RMAX   =    2.342    core radius for proj-oper                                                   
   RAUG   =    1.300    factor for augmentation sphere                                              
   RDEP   =    2.318    radius for radial grids                                                     
   RDEPT  =    2.103    core radius for aug-charge                                                  
                                                                                                    
   Atomic configuration                                                                             
   10 entries                                                                                       
     n  l   j            E        occ.                                                              
     1  0  0.50    -10959.8463   2.0000                                                             
     2  0  0.50     -1371.6056   2.0000                                                             
     2  1  1.50     -1198.4791   6.0000                                                             
     3  0  0.50      -168.4733   2.0000                                                             
     3  1  1.50      -115.6019   6.0000                                                             
     3  2  2.50       -29.3106  10.0000                                                             
     4  0  0.50       -11.7309   2.0000                                                             
     4  1  0.50        -3.8952   2.0000                                                             
     4  2  1.50        -4.0817   0.0000                                                             
     4  3  2.50        -4.0817   0.0000                                                             
   Description                                                                                      
     l       E           TYP  RCUT    TYP  RCUT                                                     
     0    -11.7309493     23  2.300                                                                 
     0     -7.4578696     23  2.300                                                                 
     1     -3.8952261     23  2.300                                                                 
     1      6.1178114     23  2.300                                                                 
     2     -4.0817478     23  2.300                                                                 
     3     -1.3605826      7  2.300                                                                 
  local pseudopotential read in
  partial core-charges read in
  partial kinetic energy density read in
  atomic valenz-charges read in
  non local Contribution for L=            0  read in
    real space projection operators read in
  non local Contribution for L=            0  read in
    real space projection operators read in
  non local Contribution for L=            1  read in
    real space projection operators read in
  non local Contribution for L=            1  read in
    real space projection operators read in
  non local Contribution for L=            2  read in
    real space projection operators read in
    PAW grid and wavefunctions read in
 
   number of l-projection  operators is LMAX  =            5
   number of lm-projection operators is LMMAX =           13
 
 POTCAR:    PAW_PBE Se 06Sep2000                  
   VRHFIN =Se: s2p4                                                                                 
   LEXCH  = PE                                                                                      
   EATOM  =   257.1286 eV,   18.8984 Ry                                                             
                                                                                                    
   TITEL  = PAW_PBE Se 06Sep2000                                                                    
   LULTRA =        F    use ultrasoft PP ?                                                          
   IUNSCR =        1    unscreen: 0-lin 1-nonlin 2-no                                               
   RPACOR =    1.900    partial core radius                                                         
   POMASS =   78.960; ZVAL   =    6.000    mass and valenz                                          
   RCORE  =    2.100    outmost cutoff radius                                                       
   RWIGS  =    2.200; RWIGS  =    1.164    wigner-seitz radius (au A)                               
   ENMAX  =  211.555; ENMIN  =  158.666 eV                                                          
   ICORE  =        3    local potential                                                             
   LCOR   =        T    correct aug charges                                                         
   LPAW   =        T    paw PP                                                                      
   EAUG   =  446.842                                                                                
   DEXC   =    0.000                                                                                
   RMAX   =    2.147    core radius for proj-oper                                                   
   RAUG   =    1.300    factor for augmentation sphere                                              
   RDEP   =    2.177    radius for radial grids                                                     
   RDEPT  =    1.928    core radius for aug-charge                                                  
                                                                                                    
   Atomic configuration                                                                             
   10 entries                                                                                       
     n  l   j            E        occ.                                                              
     1  0  0.50    -12503.4787   2.0000                                                             
     2  0  0.50     -1606.9547   2.0000                                                             
     2  1  1.50     -1413.3140   6.0000                                                             
     3  0  0.50      -213.4885   2.0000                                                             
     3  1  1.50      -152.9538   6.0000                                                             
     3  2  2.50       -53.1221  10.0000                                                             
     4  0  0.50       -17.2865   2.0000                                                             
     4  1  0.50        -6.5110   4.0000                                                             
     4  2  2.50        -6.8029   0.0000                                                             
     4  3  2.50        -6.8029   0.0000                                                             
   Description                                                                                      
     l       E           TYP  RCUT    TYP  RCUT                                                     
     0    -17.2865377     23  2.100                                                                 
     0    -15.3094411     23  2.100                                                                 
     1     -6.5110275     23  2.100                                                                 
     1     -0.0695192     23  2.100                                                                 
     2     -6.8029130     23  2.100                                                                 
     3     -1.3605826      7  2.100                                                                 
  local pseudopotential read in
  partial core-charges read in
  partial kinetic energy density read in
  atomic valenz-charges read in
  non local Contribution for L=            0  read in
    real space projection operators read in
  non local Contribution for L=            0  read in
    real space projection operators read in
  non local Contribution for L=            1  read in
    real space projection operators read in
  non local Contribution for L=            1  read in
    real space projection operators read in
  non local Contribution for L=            2  read in
    real space projection operators read in
    PAW grid and wavefunctions read in
 
   number of l-projection  operators is LMAX  =            5
   number of lm-projection operators is LMMAX =           13
 
  PAW_PBE Ge 05Jan2001                  :
 energy of atom  1       EATOM= -104.9960
 kinetic energy error for atom=    0.0005 (will be added to EATOM!!)
  PAW_PBE Se 06Sep2000                  :
 energy of atom  2       EATOM= -257.1286
 kinetic energy error for atom=    0.0030 (will be added to EATOM!!)
 
 
 POSCAR: Ge Se
  positions in cartesian coordinates
  No initial velocities read in
 exchange correlation table for  LEXCH =        8
   RHO(1)=    0.500       N(1)  =     2000
   RHO(2)=  100.500       N(2)  =     4000
 


--------------------------------------------------------------------------------------------------------


 ion  position               nearest neighbor table
   1  0.946  0.916  0.116-   3 2.58   5 2.58   6 2.59   6 2.59
   2  0.446  0.416  0.384-   4 2.58   6 2.58   5 2.59   5 2.59
   3  0.750  0.881  0.884-   1 2.58   7 2.58   8 2.59   8 2.59
   4  0.250  0.381  0.616-   2 2.58   8 2.58   7 2.59   7 2.59
   5  0.946  0.792  0.355-   1 2.58   2 2.59   2 2.59
   6  0.446  0.292  0.145-   2 2.58   1 2.59   1 2.59
   7  0.750  0.005  0.645-   3 2.58   4 2.59   4 2.59
   8  0.250  0.505  0.855-   4 2.58   3 2.59   3 2.59
 

IMPORTANT INFORMATION: All symmetrisations will be switched off!
NOSYMM: (Re-)initialisation of all symmetry stuff for point group C_1.


----------------------------------------------------------------------------------------

                                     Primitive cell                                     

  volume of cell :     184.8593

  direct lattice vectors                    reciprocal lattice vectors
     3.858100176  0.000000000  0.000000000     0.259194929  0.000000000  0.000000000
     0.000000000  4.526575088  0.000000000     0.000000000  0.220917577  0.000000000
     0.000000000  0.000000000 10.585176468     0.000000000  0.000000000  0.094471736

  length of vectors
     3.858100176  4.526575088 10.585176468     0.259194929  0.220917577  0.094471736

  position of ions in fractional coordinates (direct lattice)
     0.945651883  0.916297572  0.116293234
     0.445651931  0.416297598  0.383706663
     0.749999529  0.880803548  0.883706698
     0.249998913  0.380803590  0.616293301
     0.945651955  0.792042659  0.354521754
     0.445651833  0.292042760  0.145478256
     0.749999119  0.005058363  0.645478205
     0.249999423  0.505058446  0.854521738

  ion indices of the primitive-cell ions
   primitive index   ion index
                 1           1
                 2           2
                 3           3
                 4           4
                 5           5
                 6           6
                 7           7
                 8           8

----------------------------------------------------------------------------------------

 
 
 KPOINTS: KPOINTS created by Atomic Simulation Env

Automatic generation of k-mesh.
 Grid dimensions read from file:
 generate k-points for:    6    6    2

 Generating k-lattice:

  Cartesian coordinates                     Fractional coordinates (reciprocal lattice)
     0.043199155  0.000000000  0.000000000     0.166666667  0.000000000  0.000000000
     0.000000000  0.036819596  0.000000000     0.000000000  0.166666667  0.000000000
     0.000000000  0.000000000  0.047235868     0.000000000  0.000000000  0.500000000

  Length of vectors
     0.043199155  0.036819596  0.047235868

  Shift w.r.t. Gamma in fractional coordinates (k-lattice)
     0.000000000  0.000000000  0.000000000

 
 Subroutine IBZKPT returns following result:
 ===========================================
 
 Found     40 irreducible k-points:
 
 Following reciprocal coordinates:
            Coordinates               Weight
  0.000000  0.000000  0.000000      1.000000
  0.166667  0.000000  0.000000      2.000000
  0.333333  0.000000  0.000000      2.000000
  0.500000  0.000000  0.000000      1.000000
  0.000000  0.166667  0.000000      2.000000
  0.166667  0.166667  0.000000      2.000000
  0.166667 -0.166667  0.000000      2.000000
  0.333333  0.166667  0.000000      2.000000
  0.333333 -0.166667  0.000000      2.000000
  0.500000  0.166667  0.000000      2.000000
  0.000000  0.333333  0.000000      2.000000
  0.166667  0.333333  0.000000      2.000000
  0.166667 -0.333333  0.000000      2.000000
  0.333333  0.333333  0.000000      2.000000
  0.333333 -0.333333  0.000000      2.000000
  0.500000  0.333333  0.000000      2.000000
  0.000000  0.500000  0.000000      1.000000
  0.166667  0.500000  0.000000      2.000000
  0.333333  0.500000  0.000000      2.000000
  0.500000  0.500000  0.000000      1.000000
  0.000000  0.000000  0.500000      1.000000
  0.166667  0.000000  0.500000      2.000000
  0.333333  0.000000  0.500000      2.000000
  0.500000  0.000000  0.500000      1.000000
  0.000000  0.166667  0.500000      2.000000
  0.166667  0.166667  0.500000      2.000000
  0.166667 -0.166667  0.500000      2.000000
  0.333333  0.166667  0.500000      2.000000
  0.333333 -0.166667  0.500000      2.000000
  0.500000  0.166667  0.500000      2.000000
  0.000000  0.333333  0.500000      2.000000
  0.166667  0.333333  0.500000      2.000000
  0.166667 -0.333333  0.500000      2.000000
  0.333333  0.333333  0.500000      2.000000
  0.333333 -0.333333  0.500000      2.000000
  0.500000  0.333333  0.500000      2.000000
  0.000000  0.500000  0.500000      1.000000
  0.166667  0.500000  0.500000      2.000000
  0.333333  0.500000  0.500000      2.000000
  0.500000  0.500000  0.500000      1.000000
 
 Following cartesian coordinates:
            Coordinates               Weight
  0.000000  0.000000  0.000000      1.000000
  0.043199  0.000000  0.000000      2.000000
  0.086398  0.000000  0.000000      2.000000
  0.129597  0.000000  0.000000      1.000000
  0.000000  0.036820  0.000000      2.000000
  0.043199  0.036820  0.000000      2.000000
  0.043199 -0.036820  0.000000      2.000000
  0.086398  0.036820  0.000000      2.000000
  0.086398 -0.036820  0.000000      2.000000
  0.129597  0.036820  0.000000      2.000000
  0.000000  0.073639  0.000000      2.000000
  0.043199  0.073639  0.000000      2.000000
  0.043199 -0.073639  0.000000      2.000000
  0.086398  0.073639  0.000000      2.000000
  0.086398 -0.073639  0.000000      2.000000
  0.129597  0.073639  0.000000      2.000000
  0.000000  0.110459  0.000000      1.000000
  0.043199  0.110459  0.000000      2.000000
  0.086398  0.110459  0.000000      2.000000
  0.129597  0.110459  0.000000      1.000000
  0.000000  0.000000  0.047236      1.000000
  0.043199  0.000000  0.047236      2.000000
  0.086398  0.000000  0.047236      2.000000
  0.129597  0.000000  0.047236      1.000000
  0.000000  0.036820  0.047236      2.000000
  0.043199  0.036820  0.047236      2.000000
  0.043199 -0.036820  0.047236      2.000000
  0.086398  0.036820  0.047236      2.000000
  0.086398 -0.036820  0.047236      2.000000
  0.129597  0.036820  0.047236      2.000000
  0.000000  0.073639  0.047236      2.000000
  0.043199  0.073639  0.047236      2.000000
  0.043199 -0.073639  0.047236      2.000000
  0.086398  0.073639  0.047236      2.000000
  0.086398 -0.073639  0.047236      2.000000
  0.129597  0.073639  0.047236      2.000000
  0.000000  0.110459  0.047236      1.000000
  0.043199  0.110459  0.047236      2.000000
  0.086398  0.110459  0.047236      2.000000
  0.129597  0.110459  0.047236      1.000000
 


--------------------------------------------------------------------------------------------------------




 Dimension of arrays:
   k-points           NKPTS =     40   k-points in BZ     NKDIM =     40   number of bands    NBANDS=     32
   number of dos      NEDOS =    301   number of ions     NIONS =      8
   non local maximal  LDIM  =      5   non local SUM 2l+1 LMDIM =     13
   total plane-waves  NPLWV =  21600
   max r-space proj   IRMAX =      1   max aug-charges    IRDMAX=   6549
   dimension x,y,z NGX =    18 NGY =   24 NGZ =   50
   dimension x,y,z NGXF=    36 NGYF=   48 NGZF=  100
   support grid    NGXF=    36 NGYF=   48 NGZF=  100
   ions per type =               4   4
   NGX,Y,Z   is equivalent  to a cutoff of   7.76,  8.81,  7.85 a.u.
   NGXF,Y,Z  is equivalent  to a cutoff of  15.51, 17.63, 15.71 a.u.

 SYSTEM =  ./                                      
 POSCAR =  Ge Se                                   

 Startparameter for this run:
   NWRITE =      2    write-flag & timer
   PREC   = normal    normal or accurate (medium, high low for compatibility)
   ISTART =      0    job   : 0-new  1-cont  2-samecut
   ICHARG =      2    charge: 1-file 2-atom 10-const
   ISPIN  =      1    spin polarized calculation?
   LNONCOLLINEAR =      F non collinear calculations
   LSORBIT =      F    spin-orbit coupling
   INIWAV =      1    electr: 0-lowe 1-rand  2-diag
   LASPH  =      T    aspherical Exc in radial PAW
 Electronic Relaxation 1
   ENCUT  =  360.0 eV  26.46 Ry    5.14 a.u.   5.97  7.00 16.38*2*pi/ulx,y,z
   ENINI  =  360.0     initial cutoff
   ENAUG  =  446.8 eV  augmentation charge cutoff
   NELM   =    100;   NELMIN=  2; NELMDL= -5     # of ELM steps 
   EDIFF  = 0.1E-05   stopping-criterion for ELM
   LREAL  =      F    real-space projection
   NLSPLINE    = F    spline interpolate recip. space projectors
   LCOMPAT=      F    compatible to vasp.4.4
   GGA_COMPAT  = T    GGA compatible to vasp.4.4-vasp.4.6
   LMAXPAW     = -100 max onsite density
   LMAXMIX     =    4 max onsite mixed and CHGCAR
   VOSKOWN=      0    Vosko Wilk Nusair interpolation
   ROPT   =    0.00000   0.00000
 Ionic relaxation
   EDIFFG = 0.1E-04   stopping-criterion for IOM
   NSW    =      0    number of steps for IOM
   NBLOCK =      1;   KBLOCK =      1    inner block; outer block 
   IBRION =     -1    ionic relax: 0-MD 1-quasi-New 2-CG
   NFREE  =      0    steps in history (QN), initial steepest desc. (CG)
   ISIF   =      2    stress and relaxation
   IWAVPR =     10    prediction:  0-non 1-charg 2-wave 3-comb
   ISYM   =      0    0-nonsym 1-usesym 2-fastsym
   LCORR  =      T    Harris-Foulkes like correction to forces

   POTIM  = 0.5000    time-step for ionic-motion
   TEIN   =    0.0    initial temperature
   TEBEG  =    0.0;   TEEND  =   0.0 temperature during run
   SMASS  =  -3.00    Nose mass-parameter (am)
   estimated Nose-frequenzy (Omega)   =  0.10E-29 period in steps = 0.13E+47 mass=  -0.340E-27a.u.
   SCALEE = 1.0000    scale energy and forces
   NPACO  =    256;   APACO  = 10.0  distance and # of slots for P.C.
   PSTRESS=    0.0 pullay stress

  Mass of Ions in am
   POMASS =  72.61 78.96
  Ionic Valenz
   ZVAL   =   4.00  6.00
  Atomic Wigner-Seitz radii
   RWIGS  =  -1.00 -1.00
  virtual crystal weights 
   VCA    =   1.00  1.00
   NELECT =      40.0000    total number of electrons
   NUPDOWN=      -1.0000    fix difference up-down

 DOS related values:
   EMIN   =  10.00;   EMAX   =-10.00  energy-range for DOS
   EFERMI =   0.00;   METHOD = LEGACY      
   ISMEAR =     0;   SIGMA  =   0.05  broadening in eV -4-tet -1-fermi 0-gaus

 Electronic relaxation 2 (details)
   IALGO  =     38    algorithm
   LDIAG  =      T    sub-space diagonalisation (order eigenvalues)
   LSUBROT=      F    optimize rotation matrix (better conditioning)
   TURBO    =      0    0=normal 1=particle mesh
   IRESTART =      0    0=no restart 2=restart with 2 vectors
   NREBOOT  =      0    no. of reboots
   NMIN     =      0    reboot dimension
   EREF     =   0.00    reference energy to select bands
   IMIX   =      4    mixing-type and parameters
     AMIX     =   0.40;   BMIX     =  1.00
     AMIX_MAG =   1.60;   BMIX_MAG =  1.00
     AMIN     =   0.10
     WC   =   100.;   INIMIX=   1;  MIXPRE=   1;  MAXMIX= -45

 Intra band minimization:
   WEIMIN = 0.0000     energy-eigenvalue tresh-hold
   EBREAK =  0.78E-08  absolut break condition
   DEPER  =   0.30     relativ break condition  

   TIME   =   0.40     timestep for ELM

  volume/ion in A,a.u.               =      23.11       155.94
  Fermi-wavevector in a.u.,A,eV,Ry     =   0.982836  1.857291 13.142773  0.965967
  Thomas-Fermi vector in A             =   2.113949
 
 Write flags
   LWAVE        =      F    write WAVECAR
   LDOWNSAMPLE  =      F    k-point downsampling of WAVECAR
   LCHARG       =      F    write CHGCAR
   LVTOT        =      F    write LOCPOT, total local potential
   LVHAR        =      F    write LOCPOT, Hartree potential only
   LELF         =      F    write electronic localiz. function (ELF)
   LORBIT       =      0    0 simple, 1 ext, 2 COOP (PROOUT), +10 PAW based schemes


 Dipole corrections
   LMONO  =      F    monopole corrections only (constant potential shift)
   LDIPOL =      F    correct potential (dipole corrections)
   IDIPOL =      0    1-x, 2-y, 3-z, 4-all directions 
   EPSILON=  1.0000000 bulk dielectric constant

 Exchange correlation treatment:
   GGA     =    PE    GGA type
   LEXCH   =     8    internal setting for exchange type
   LIBXC   =     F    Libxc                    
   VOSKOWN =     0    Vosko Wilk Nusair interpolation
   LHFCALC =     F    Hartree Fock is set to
   LHFONE  =     F    Hartree Fock one center treatment
   AEXX    =    0.0000 exact exchange contribution

 Linear response parameters
   LEPSILON=     F    determine dielectric tensor
   LRPA    =     F    only Hartree local field effects (RPA)
   LNABLA  =     F    use nabla operator in PAW spheres
   LVEL    =     F    velocity operator in full k-point grid
   CSHIFT  =0.1000    complex shift for real part using Kramers Kronig
   OMEGAMAX=  -1.0    maximum frequency
   DEG_THRESHOLD= 0.2000000E-02 threshold for treating states as degnerate
   RTIME   =   -0.100 relaxation time in fs
  (WPLASMAI=    0.000 imaginary part of plasma frequency in eV, 0.658/RTIME)
   DFIELD  = 0.0000000 0.0000000 0.0000000 field for delta impulse in time
 
  Optional k-point grid parameters
   LKPOINTS_OPT  =     F    use optional k-point grid
   KPOINTS_OPT_MODE=     1    mode for optional k-point grid
 
 Orbital magnetization related:
   ORBITALMAG=     F  switch on orbital magnetization
   LCHIMAG   =     F  perturbation theory with respect to B field
   DQ        =  0.001000  dq finite difference perturbation B field
   LLRAUG    =     F  two centre corrections for induced B field
   LBONE     =     F  B-component reconstruction in AE one-centre
   LVGVCALC  =     T  calculate vGv susceptibility
   LVGVAPPL  =     F  apply vGv susceptibility instead of pGv for G=0

 Random number generation:
   RANDOM_GENERATOR = DEFAULT
   PCG_SEED         = not used


--------------------------------------------------------------------------------------------------------


 Static calculation
 charge density and potential will be updated during run
 non-spin polarized calculation
 Variant of blocked Davidson
 Davidson routine will perform the subspace rotation
 perform sub-space diagonalisation
    after iterative eigenvector-optimisation
 modified Broyden-mixing scheme, WC =      100.0
 initial mixing is a Kerker type mixing with AMIX =  0.4000 and BMIX =      1.0000
 Hartree-type preconditioning will be used
 using additional bands            12
 reciprocal scheme for non local part
 use partial core corrections
 calculate Harris-corrections to forces 
   (improved forces if not selfconsistent)
 use gradient corrections 
 use of overlap-Matrix (Vanderbilt PP)
 Gauss-broadening in eV      SIGMA  =   0.05


--------------------------------------------------------------------------------------------------------


  energy-cutoff  :      360.00
  volume of cell :      184.86
      direct lattice vectors                 reciprocal lattice vectors
     3.858100176  0.000000000  0.000000000     0.259194929  0.000000000  0.000000000
     0.000000000  4.526575088  0.000000000     0.000000000  0.220917577  0.000000000
     0.000000000  0.000000000 10.585176468     0.000000000  0.000000000  0.094471736

  length of vectors
     3.858100176  4.526575088 10.585176468     0.259194929  0.220917577  0.094471736


 
 k-points in units of 2pi/SCALE and weight: KPOINTS created by Atomic Simulation Env
   0.00000000  0.00000000  0.00000000       0.014
   0.04319915  0.00000000  0.00000000       0.028
   0.08639831  0.00000000  0.00000000       0.028
   0.12959746  0.00000000  0.00000000       0.014
   0.00000000  0.03681960  0.00000000       0.028
   0.04319915  0.03681960  0.00000000       0.028
   0.04319915 -0.03681960  0.00000000       0.028
   0.08639831  0.03681960  0.00000000       0.028
   0.08639831 -0.03681960  0.00000000       0.028
   0.12959746  0.03681960  0.00000000       0.028
   0.00000000  0.07363919  0.00000000       0.028
   0.04319915  0.07363919  0.00000000       0.028
   0.04319915 -0.07363919  0.00000000       0.028
   0.08639831  0.07363919  0.00000000       0.028
   0.08639831 -0.07363919  0.00000000       0.028
   0.12959746  0.07363919  0.00000000       0.028
   0.00000000  0.11045879  0.00000000       0.014
   0.04319915  0.11045879  0.00000000       0.028
   0.08639831  0.11045879  0.00000000       0.028
   0.12959746  0.11045879  0.00000000       0.014
   0.00000000  0.00000000  0.04723587       0.014
   0.04319915  0.00000000  0.04723587       0.028
   0.08639831  0.00000000  0.04723587       0.028
   0.12959746  0.00000000  0.04723587       0.014
   0.00000000  0.03681960  0.04723587       0.028
   0.04319915  0.03681960  0.04723587       0.028
   0.04319915 -0.03681960  0.04723587       0.028
   0.08639831  0.03681960  0.04723587       0.028
   0.08639831 -0.03681960  0.04723587       0.028
   0.12959746  0.03681960  0.04723587       0.028
   0.00000000  0.07363919  0.04723587       0.028
   0.04319915  0.07363919  0.04723587       0.028
   0.04319915 -0.07363919  0.04723587       0.028
   0.08639831  0.07363919  0.04723587       0.028
   0.08639831 -0.07363919  0.04723587       0.028
   0.12959746  0.07363919  0.04723587       0.028
   0.00000000  0.11045879  0.04723587       0.014
   0.04319915  0.11045879  0.04723587       0.028
   0.08639831  0.11045879  0.04723587       0.028
   0.12959746  0.11045879  0.04723587       0.014
 
 k-points in reciprocal lattice and weights: KPOINTS created by Atomic Simulation Env
   0.00000000  0.00000000  0.00000000       0.014
   0.16666667  0.00000000  0.00000000       0.028
   0.33333333  0.00000000  0.00000000       0.028
   0.50000000  0.00000000  0.00000000       0.014
   0.00000000  0.16666667  0.00000000       0.028
   0.16666667  0.16666667  0.00000000       0.028
   0.16666667 -0.16666667  0.00000000       0.028
   0.33333333  0.16666667  0.00000000       0.028
   0.33333333 -0.16666667  0.00000000       0.028
   0.50000000  0.16666667  0.00000000       0.028
   0.00000000  0.33333333  0.00000000       0.028
   0.16666667  0.33333333  0.00000000       0.028
   0.16666667 -0.33333333  0.00000000       0.028
   0.33333333  0.33333333  0.00000000       0.028
   0.33333333 -0.33333333  0.00000000       0.028
   0.50000000  0.33333333  0.00000000       0.028
   0.00000000  0.50000000  0.00000000       0.014
   0.16666667  0.50000000  0.00000000       0.028
   0.33333333  0.50000000  0.00000000       0.028
   0.50000000  0.50000000  0.00000000       0.014
   0.00000000  0.00000000  0.50000000       0.014
   0.16666667  0.00000000  0.50000000       0.028
   0.33333333  0.00000000  0.50000000       0.028
   0.50000000  0.00000000  0.50000000       0.014
   0.00000000  0.16666667  0.50000000       0.028
   0.16666667  0.16666667  0.50000000       0.028
   0.16666667 -0.16666667  0.50000000       0.028
   0.33333333  0.16666667  0.50000000       0.028
   0.33333333 -0.16666667  0.50000000       0.028
   0.50000000  0.16666667  0.50000000       0.028
   0.00000000  0.33333333  0.50000000       0.028
   0.16666667  0.33333333  0.50000000       0.028
   0.16666667 -0.33333333  0.50000000       0.028
   0.33333333  0.33333333  0.50000000       0.028
   0.33333333 -0.33333333  0.50000000       0.028
   0.50000000  0.33333333  0.50000000       0.028
   0.00000000  0.50000000  0.50000000       0.014
   0.16666667  0.50000000  0.50000000       0.028
   0.33333333  0.50000000  0.50000000       0.028
   0.50000000  0.50000000  0.50000000       0.014
 
 position of ions in fractional coordinates (direct lattice) 
   0.94565188  0.91629757  0.11629323
   0.44565193  0.41629760  0.38370666
   0.74999953  0.88080355  0.88370670
   0.24999891  0.38080359  0.61629330
   0.94565195  0.79204266  0.35452175
   0.44565183  0.29204276  0.14547826
   0.74999912  0.00505836  0.64547820
   0.24999942  0.50505845  0.85452174
 
 position of ions in cartesian coordinates  (Angst):
   3.64841970  4.14768976  1.23098441
   1.71936979  1.88440233  4.06160274
   2.89357331  3.98702340  9.35419135
   0.96452085  1.72373604  6.52357335
   3.64841997  3.58524057  3.75267533
   1.71936942  1.32195348  1.53991301
   2.89357173  0.02289706  6.83250071
   0.96452282  2.28618498  9.04526339
 


--------------------------------------------------------------------------------------------------------


 k-point   1 :   0.0000 0.0000 0.0000  plane waves:    2825
 k-point   2 :   0.1667 0.0000 0.0000  plane waves:    2856
 k-point   3 :   0.3333 0.0000 0.0000  plane waves:    2864
 k-point   4 :   0.5000 0.0000 0.0000  plane waves:    2880
 k-point   5 :   0.0000 0.1667 0.0000  plane waves:    2850
 k-point   6 :   0.1667 0.1667 0.0000  plane waves:    2853
 k-point   7 :   0.1667-0.1667 0.0000  plane waves:    2853
 k-point   8 :   0.3333 0.1667 0.0000  plane waves:    2873
 k-point   9 :   0.3333-0.1667 0.0000  plane waves:    2873
 k-point  10 :   0.5000 0.1667 0.0000  plane waves:    2866
 k-point  11 :   0.0000 0.3333 0.0000  plane waves:    2864
 k-point  12 :   0.1667 0.3333 0.0000  plane waves:    2871
 k-point  13 :   0.1667-0.3333 0.0000  plane waves:    2871
 k-point  14 :   0.3333 0.3333 0.0000  plane waves:    2883
 k-point  15 :   0.3333-0.3333 0.0000  plane waves:    2883
 k-point  16 :   0.5000 0.3333 0.0000  plane waves:    2880
 k-point  17 :   0.0000 0.5000 0.0000  plane waves:    2874
 k-point  18 :   0.1667 0.5000 0.0000  plane waves:    2880
 k-point  19 :   0.3333 0.5000 0.0000  plane waves:    2888
 k-point  20 :   0.5000 0.5000 0.0000  plane waves:    2896
 k-point  21 :   0.0000 0.0000 0.5000  plane waves:    2828
 k-point  22 :   0.1667 0.0000 0.5000  plane waves:    2838
 k-point  23 :   0.3333 0.0000 0.5000  plane waves:    2868
 k-point  24 :   0.5000 0.0000 0.5000  plane waves:    2852
 k-point  25 :   0.0000 0.1667 0.5000  plane waves:    2846
 k-point  26 :   0.1667 0.1667 0.5000  plane waves:    2868
 k-point  27 :   0.1667-0.1667 0.5000  plane waves:    2868
 k-point  28 :   0.3333 0.1667 0.5000  plane waves:    2866
 k-point  29 :   0.3333-0.1667 0.5000  plane waves:    2866
 k-point  30 :   0.5000 0.1667 0.5000  plane waves:    2884
 k-point  31 :   0.0000 0.3333 0.5000  plane waves:    2852
 k-point  32 :   0.1667 0.3333 0.5000  plane waves:    2862
 k-point  33 :   0.1667-0.3333 0.5000  plane waves:    2862
 k-point  34 :   0.3333 0.3333 0.5000  plane waves:    2874
 k-point  35 :   0.3333-0.3333 0.5000  plane waves:    2874
 k-point  36 :   0.5000 0.3333 0.5000  plane waves:    2892
 k-point  37 :   0.0000 0.5000 0.5000  plane waves:    2872
 k-point  38 :   0.1667 0.5000 0.5000  plane waves:    2856
 k-point  39 :   0.3333 0.5000 0.5000  plane waves:    2876
 k-point  40 :   0.5000 0.5000 0.5000  plane waves:    2872

 maximum and minimum number of plane-waves per node :       592      553

 maximum number of plane-waves:      2896
 maximum index in each direction: 
   IXMAX=    5   IYMAX=    7   IZMAX=   16
   IXMIN=   -6   IYMIN=   -7   IZMIN=  -16


 parallel 3D FFT for wavefunctions:
    minimum data exchange during FFTs selected (reduces bandwidth)
 parallel 3D FFT for charge:
    minimum data exchange during FFTs selected (reduces bandwidth)


 total amount of memory used by VASP MPI-rank0    36587. kBytes
=======================================================================

   base      :      30000. kBytes
   nonl-proj :       5001. kBytes
   fftplans  :        306. kBytes
   grid      :        466. kBytes
   one-center:         16. kBytes
   wavefun   :        798. kBytes
 
     INWAV:  cpu time      0.0000: real time      0.0001
 Broyden mixing: mesh for mixing (old mesh)
   NGX = 11   NGY = 15   NGZ = 33
  (NGX  = 36   NGY  = 48   NGZ  =100)
  gives a total of   5445 points

 initial charge density was supplied:
 charge density of overlapping atoms calculated
 number of electron      40.0000000 magnetization 
 keeping initial charge density in first step


--------------------------------------------------------------------------------------------------------


 Maximum index for augmentation-charges           415 (set IRDMAX)


--------------------------------------------------------------------------------------------------------


 First call to EWALD:  gamma=   0.311
 Maximum number of real-space cells 4x 3x 2
 Maximum number of reciprocal cells 2x 2x 5

    FEWALD:  cpu time      0.0011: real time      0.0011


--------------------------------------- Ionic step        1  -------------------------------------------




--------------------------------------- Iteration      1(   1)  ---------------------------------------


    POTLOK:  cpu time      0.0079: real time      0.0080
    SETDIJ:  cpu time      0.2198: real time      0.2203
     EDDAV:  cpu time      0.3016: real time      0.3033
       DOS:  cpu time      0.0011: real time      0.0011
    --------------------------------------------
      LOOP:  cpu time      0.5304: real time      0.5326

 eigenvalue-minimisations  :  2560
 total energy-change (2. order) : 0.1290643E+03  (-0.1296034E+04)
 number of electron      40.0000000 magnetization 
 augmentation part       40.0000000 magnetization 

 Free energy of the ion-electron system (eV)
  ---------------------------------------------------
  alpha Z        PSCENC =        91.66130333
  Ewald energy   TEWEN  =     -1447.21426307
  -Hartree energ DENC   =      -115.20080204
  -exchange      EXHF   =         0.00000000
  -V(xc)+E(xc)   XCENC  =       -32.69308076
  PAW double counting   =      1193.78262552    -1080.73714043
  entropy T*S    EENTRO =        -0.00323923
  eigenvalues    EBANDS =        70.98430562
  atomic energy  EATOM  =      1448.48460880
  Solvation  Ediel_sol  =         0.00000000
  ---------------------------------------------------
  free energy    TOTEN  =       129.06431773 eV

  energy without entropy =      129.06755696  energy(sigma->0) =      129.06593735


--------------------------------------------------------------------------------------------------------




--------------------------------------- Iteration      1(   2)  ---------------------------------------


     EDDAV:  cpu time      0.4249: real time      0.4275
       DOS:  cpu time      0.0011: real time      0.0011
    --------------------------------------------
      LOOP:  cpu time      0.4260: real time      0.4287

 eigenvalue-minimisations  :  3712
 total energy-change (2. order) :-0.1540523E+03  (-0.1499705E+03)
 number of electron      40.0000000 magnetization 
 augmentation part       40.0000000 magnetization 

 Free energy of the ion-electron system (eV)
  ---------------------------------------------------
  alpha Z        PSCENC =        91.66130333
  Ewald energy   TEWEN  =     -1447.21426307
  -Hartree energ DENC   =      -115.20080204
  -exchange      EXHF   =         0.00000000
  -V(xc)+E(xc)   XCENC  =       -32.69308076
  PAW double counting   =      1193.78262552    -1080.73714043
  entropy T*S    EENTRO =        -0.00003176
  eigenvalues    EBANDS =       -83.07118478
  atomic energy  EATOM  =      1448.48460880
  Solvation  Ediel_sol  =         0.00000000
  ---------------------------------------------------
  free energy    TOTEN  =       -24.98796521 eV

  energy without entropy =      -24.98793344  energy(sigma->0) =      -24.98794932


--------------------------------------------------------------------------------------------------------




--------------------------------------- Iteration      1(   3)  ---------------------------------------


     EDDAV:  cpu time      0.3613: real time      0.3635
       DOS:  cpu time      0.0009: real time      0.0009
    --------------------------------------------
      LOOP:  cpu time      0.3622: real time      0.3644

 eigenvalue-minimisations  :  3120
 total energy-change (2. order) :-0.8172306E+01  (-0.8157031E+01)
 number of electron      40.0000000 magnetization 
 augmentation part       40.0000000 magnetization 

 Free energy of the ion-electron system (eV)
  ---------------------------------------------------
  alpha Z        PSCENC =        91.66130333
  Ewald energy   TEWEN  =     -1447.21426307
  -Hartree energ DENC   =      -115.20080204
  -exchange      EXHF   =         0.00000000
  -V(xc)+E(xc)   XCENC  =       -32.69308076
  PAW double counting   =      1193.78262552    -1080.73714043
  entropy T*S    EENTRO =        -0.00000144
  eigenvalues    EBANDS =       -91.24352106
  atomic energy  EATOM  =      1448.48460880
  Solvation  Ediel_sol  =         0.00000000
  ---------------------------------------------------
  free energy    TOTEN  =       -33.16027115 eV

  energy without entropy =      -33.16026972  energy(sigma->0) =      -33.16027044


--------------------------------------------------------------------------------------------------------




--------------------------------------- Iteration      1(   4)  ---------------------------------------


     EDDAV:  cpu time      0.4381: real time      0.4398
       DOS:  cpu time      0.0103: real time      0.0103
    --------------------------------------------
      LOOP:  cpu time      0.4485: real time      0.4502

 eigenvalue-minimisations  :  3472
 total energy-change (2. order) :-0.5426093E-01  (-0.5425291E-01)
 number of electron      40.0000000 magnetization 
 augmentation part       40.0000000 magnetization 

 Free energy of the ion-electron system (eV)
  ---------------------------------------------------
  alpha Z        PSCENC =        91.66130333
  Ewald energy   TEWEN  =     -1447.21426307
  -Hartree energ DENC   =      -115.20080204
  -exchange      EXHF   =         0.00000000
  -V(xc)+E(xc)   XCENC  =       -32.69308076
  PAW double counting   =      1193.78262552    -1080.73714043
  entropy T*S    EENTRO =        -0.00000154
  eigenvalues    EBANDS =       -91.29778187
  atomic energy  EATOM  =      1448.48460880
  Solvation  Ediel_sol  =         0.00000000
  ---------------------------------------------------
  free energy    TOTEN  =       -33.21453208 eV

  energy without entropy =      -33.21453053  energy(sigma->0) =      -33.21453131


--------------------------------------------------------------------------------------------------------




--------------------------------------- Iteration      1(   5)  ---------------------------------------


     EDDAV:  cpu time      0.3746: real time      0.3771
       DOS:  cpu time      0.0008: real time      0.0008
    CHARGE:  cpu time      0.0302: real time      0.0303
    MIXING:  cpu time      0.0009: real time      0.0009
    --------------------------------------------
      LOOP:  cpu time      0.4065: real time      0.4090

 eigenvalue-minimisations  :  3152
 total energy-change (2. order) :-0.3217123E-03  (-0.3217090E-03)
 number of electron      40.0000029 magnetization 
 augmentation part       -7.4085472 magnetization 

 Broyden mixing:
  rms(total) = 0.68874E+00    rms(broyden)= 0.68873E+00
  rms(prec ) = 0.76249E+00
  weight for this iteration     100.00

 Free energy of the ion-electron system (eV)
  ---------------------------------------------------
  alpha Z        PSCENC =        91.66130333
  Ewald energy   TEWEN  =     -1447.21426307
  -Hartree energ DENC   =      -115.20080204
  -exchange      EXHF   =         0.00000000
  -V(xc)+E(xc)   XCENC  =       -32.69308076
  PAW double counting   =      1193.78262552    -1080.73714043
  entropy T*S    EENTRO =        -0.00000154
  eigenvalues    EBANDS =       -91.29810359
  atomic energy  EATOM  =      1448.48460880
  Solvation  Ediel_sol  =         0.00000000
  ---------------------------------------------------
  free energy    TOTEN  =       -33.21485379 eV

  energy without entropy =      -33.21485225  energy(sigma->0) =      -33.21485302


--------------------------------------------------------------------------------------------------------




--------------------------------------- Iteration      1(   6)  ---------------------------------------


    POTLOK:  cpu time      0.0074: real time      0.0075
    SETDIJ:  cpu time      0.2194: real time      0.2199
     EDDAV:  cpu time      0.3664: real time      0.3684
       DOS:  cpu time      0.0009: real time      0.0009
    CHARGE:  cpu time      0.0051: real time      0.0052
    MIXING:  cpu time      0.0004: real time      0.0005
    --------------------------------------------
      LOOP:  cpu time      0.5997: real time      0.6024

 eigenvalue-minimisations  :  3184
 total energy-change (2. order) : 0.3010964E+00  (-0.5693261E-01)
 number of electron      40.0000028 magnetization 
 augmentation part       -7.3627751 magnetization 

 Broyden mixing:
  rms(total) = 0.43499E+00    rms(broyden)= 0.43499E+00
  rms(prec ) = 0.45762E+00
  weight for this iteration     100.00

 eigenvalues of (default mixing * dielectric matrix)
  average eigenvalue GAMMA=   2.3714
  2.3714

 Free energy of the ion-electron system (eV)
  ---------------------------------------------------
  alpha Z        PSCENC =        91.66130333
  Ewald energy   TEWEN  =     -1447.21426307
  -Hartree energ DENC   =      -120.62990885
  -exchange      EXHF   =         0.00000000
  -V(xc)+E(xc)   XCENC  =       -32.10631077
  PAW double counting   =      1487.67198914    -1374.97662204
  entropy T*S    EENTRO =        -0.00020864
  eigenvalues    EBANDS =       -85.80434526
  atomic energy  EATOM  =      1448.48460880
  Solvation  Ediel_sol  =         0.00000000
  ---------------------------------------------------
  free energy    TOTEN  =       -32.91375737 eV

  energy without entropy =      -32.91354873  energy(sigma->0) =      -32.91365305


--------------------------------------------------------------------------------------------------------




--------------------------------------- Iteration      1(   7)  ---------------------------------------


    POTLOK:  cpu time      0.0073: real time      0.0074
    SETDIJ:  cpu time      0.2202: real time      0.2211
     EDDAV:  cpu time      0.3529: real time      0.3544
       DOS:  cpu time      0.0010: real time      0.0010
    CHARGE:  cpu time      0.0051: real time      0.0051
    MIXING:  cpu time      0.0004: real time      0.0004
    --------------------------------------------
      LOOP:  cpu time      0.5869: real time      0.5895

 eigenvalue-minimisations  :  2976
 total energy-change (2. order) : 0.2562975E-01  (-0.2003131E-01)
 number of electron      40.0000028 magnetization 
 augmentation part       -7.3422175 magnetization 

 Broyden mixing:
  rms(total) = 0.10709E+00    rms(broyden)= 0.10709E+00
  rms(prec ) = 0.11484E+00
  weight for this iteration     100.00

 eigenvalues of (default mixing * dielectric matrix)
  average eigenvalue GAMMA=   1.7898
  1.1659  2.4138

 Free energy of the ion-electron system (eV)
  ---------------------------------------------------
  alpha Z        PSCENC =        91.66130333
  Ewald energy   TEWEN  =     -1447.21426307
  -Hartree energ DENC   =      -123.94358921
  -exchange      EXHF   =         0.00000000
  -V(xc)+E(xc)   XCENC  =       -31.56693572
  PAW double counting   =      1893.52636015    -1781.14690628
  entropy T*S    EENTRO =        -0.00048179
  eigenvalues    EBANDS =       -82.68822383
  atomic energy  EATOM  =      1448.48460880
  Solvation  Ediel_sol  =         0.00000000
  ---------------------------------------------------
  free energy    TOTEN  =       -32.88812761 eV

  energy without entropy =      -32.88764583  energy(sigma->0) =      -32.88788672


--------------------------------------------------------------------------------------------------------




--------------------------------------- Iteration      1(   8)  ---------------------------------------


    POTLOK:  cpu time      0.0073: real time      0.0074
    SETDIJ:  cpu time      0.2173: real time      0.2177
     EDDAV:  cpu time      0.4473: real time      0.4493
       DOS:  cpu time      0.0015: real time      0.0015
    CHARGE:  cpu time      0.0052: real time      0.0052
    MIXING:  cpu time      0.0005: real time      0.0005
    --------------------------------------------
      LOOP:  cpu time      0.6790: real time      0.6815

 eigenvalue-minimisations  :  3200
 total energy-change (2. order) : 0.7543546E-03  (-0.1554375E-02)
 number of electron      40.0000028 magnetization 
 augmentation part       -7.3473117 magnetization 

 Broyden mixing:
  rms(total) = 0.17920E-01    rms(broyden)= 0.17920E-01
  rms(prec ) = 0.21483E-01
  weight for this iteration     100.00

 eigenvalues of (default mixing * dielectric matrix)
  average eigenvalue GAMMA=   1.7229
  2.5133  1.2236  1.4316

 Free energy of the ion-electron system (eV)
  ---------------------------------------------------
  alpha Z        PSCENC =        91.66130333
  Ewald energy   TEWEN  =     -1447.21426307
  -Hartree energ DENC   =      -124.14022957
  -exchange      EXHF   =         0.00000000
  -V(xc)+E(xc)   XCENC  =       -31.44874011
  PAW double counting   =      2015.53088059    -1903.21043270
  entropy T*S    EENTRO =        -0.00035302
  eigenvalues    EBANDS =       -82.55014751
  atomic energy  EATOM  =      1448.48460880
  Solvation  Ediel_sol  =         0.00000000
  ---------------------------------------------------
  free energy    TOTEN  =       -32.88737326 eV

  energy without entropy =      -32.88702024  energy(sigma->0) =      -32.88719675


--------------------------------------------------------------------------------------------------------




--------------------------------------- Iteration      1(   9)  ---------------------------------------


    POTLOK:  cpu time      0.0073: real time      0.0075
    SETDIJ:  cpu time      0.2159: real time      0.2164
     EDDAV:  cpu time      0.3865: real time      0.3881
       DOS:  cpu time      0.0010: real time      0.0010
    CHARGE:  cpu time      0.0052: real time      0.0052
    MIXING:  cpu time      0.0005: real time      0.0005
    --------------------------------------------
      LOOP:  cpu time      0.6164: real time      0.6186

 eigenvalue-minimisations  :  3296
 total energy-change (2. order) :-0.2883333E-03  (-0.2825719E-03)
 number of electron      40.0000028 magnetization 
 augmentation part       -7.3477399 magnetization 

 Broyden mixing:
  rms(total) = 0.59773E-02    rms(broyden)= 0.59773E-02
  rms(prec ) = 0.66857E-02
  weight for this iteration     100.00

 eigenvalues of (default mixing * dielectric matrix)
  average eigenvalue GAMMA=   1.6874
  2.2532  2.1494  1.1735  1.1735

 Free energy of the ion-electron system (eV)
  ---------------------------------------------------
  alpha Z        PSCENC =        91.66130333
  Ewald energy   TEWEN  =     -1447.21426307
  -Hartree energ DENC   =      -124.31981280
  -exchange      EXHF   =         0.00000000
  -V(xc)+E(xc)   XCENC  =       -31.41684727
  PAW double counting   =      2029.29226571    -1916.97687866
  entropy T*S    EENTRO =        -0.00037491
  eigenvalues    EBANDS =       -82.39766271
  atomic energy  EATOM  =      1448.48460880
  Solvation  Ediel_sol  =         0.00000000
  ---------------------------------------------------
  free energy    TOTEN  =       -32.88766159 eV

  energy without entropy =      -32.88728668  energy(sigma->0) =      -32.88747413


--------------------------------------------------------------------------------------------------------




--------------------------------------- Iteration      1(  10)  ---------------------------------------


    POTLOK:  cpu time      0.0074: real time      0.0076
    SETDIJ:  cpu time      0.2169: real time      0.2174
     EDDAV:  cpu time      0.4392: real time      0.4413
       DOS:  cpu time      0.0011: real time      0.0011
    CHARGE:  cpu time      0.0050: real time      0.0051
    MIXING:  cpu time      0.0018: real time      0.0018
    --------------------------------------------
      LOOP:  cpu time      0.6714: real time      0.6742

 eigenvalue-minimisations  :  3424
 total energy-change (2. order) :-0.8366532E-04  (-0.2141205E-04)
 number of electron      40.0000028 magnetization 
 augmentation part       -7.3479945 magnetization 

 Broyden mixing:
  rms(total) = 0.23006E-02    rms(broyden)= 0.23006E-02
  rms(prec ) = 0.28863E-02
  weight for this iteration     100.00

 eigenvalues of (default mixing * dielectric matrix)
  average eigenvalue GAMMA=   1.7337
  2.5498  2.3335  1.1339  1.2100  1.4410

 Free energy of the ion-electron system (eV)
  ---------------------------------------------------
  alpha Z        PSCENC =        91.66130333
  Ewald energy   TEWEN  =     -1447.21426307
  -Hartree energ DENC   =      -124.33879145
  -exchange      EXHF   =         0.00000000
  -V(xc)+E(xc)   XCENC  =       -31.41395754
  PAW double counting   =      2023.91300932    -1911.59298108
  entropy T*S    EENTRO =        -0.00037105
  eigenvalues    EBANDS =       -82.38630252
  atomic energy  EATOM  =      1448.48460880
  Solvation  Ediel_sol  =         0.00000000
  ---------------------------------------------------
  free energy    TOTEN  =       -32.88774526 eV

  energy without entropy =      -32.88737421  energy(sigma->0) =      -32.88755973


--------------------------------------------------------------------------------------------------------




--------------------------------------- Iteration      1(  11)  ---------------------------------------


    POTLOK:  cpu time      0.0072: real time      0.0073
    SETDIJ:  cpu time      0.2168: real time      0.2173
     EDDAV:  cpu time      0.3668: real time      0.3685
       DOS:  cpu time      0.0010: real time      0.0010
    CHARGE:  cpu time      0.0050: real time      0.0051
    MIXING:  cpu time      0.0007: real time      0.0007
    --------------------------------------------
      LOOP:  cpu time      0.5976: real time      0.5999

 eigenvalue-minimisations  :  2976
 total energy-change (2. order) :-0.3107409E-04  (-0.3651349E-05)
 number of electron      40.0000028 magnetization 
 augmentation part       -7.3480212 magnetization 

 Broyden mixing:
  rms(total) = 0.10252E-02    rms(broyden)= 0.10252E-02
  rms(prec ) = 0.11546E-02
  weight for this iteration     100.00

 eigenvalues of (default mixing * dielectric matrix)
  average eigenvalue GAMMA=   1.7252
  2.5504  2.4753  1.9679  0.9266  1.2155  1.2155

 Free energy of the ion-electron system (eV)
  ---------------------------------------------------
  alpha Z        PSCENC =        91.66130333
  Ewald energy   TEWEN  =     -1447.21426307
  -Hartree energ DENC   =      -124.37560531
  -exchange      EXHF   =         0.00000000
  -V(xc)+E(xc)   XCENC  =       -31.40757176
  PAW double counting   =      2024.68707513    -1912.36708565
  entropy T*S    EENTRO =        -0.00036500
  eigenvalues    EBANDS =       -82.35587279
  atomic energy  EATOM  =      1448.48460880
  Solvation  Ediel_sol  =         0.00000000
  ---------------------------------------------------
  free energy    TOTEN  =       -32.88777633 eV

  energy without entropy =      -32.88741133  energy(sigma->0) =      -32.88759383


--------------------------------------------------------------------------------------------------------




--------------------------------------- Iteration      1(  12)  ---------------------------------------


    POTLOK:  cpu time      0.0076: real time      0.0077
    SETDIJ:  cpu time      0.2132: real time      0.2159
     EDDAV:  cpu time      0.4606: real time      0.4636
       DOS:  cpu time      0.0010: real time      0.0010
    CHARGE:  cpu time      0.0073: real time      0.0073
    MIXING:  cpu time      0.0005: real time      0.0005
    --------------------------------------------
      LOOP:  cpu time      0.6902: real time      0.6961

 eigenvalue-minimisations  :  3648
 total energy-change (2. order) :-0.1539691E-05  (-0.4892608E-06)
 number of electron      40.0000028 magnetization 
 augmentation part       -7.3478903 magnetization 

 Broyden mixing:
  rms(total) = 0.26318E-03    rms(broyden)= 0.26318E-03
  rms(prec ) = 0.30804E-03
  weight for this iteration     100.00

 eigenvalues of (default mixing * dielectric matrix)
  average eigenvalue GAMMA=   1.7271
  2.9311  2.4665  1.6403  1.6403  0.9915  1.2101  1.2101

 Free energy of the ion-electron system (eV)
  ---------------------------------------------------
  alpha Z        PSCENC =        91.66130333
  Ewald energy   TEWEN  =     -1447.21426307
  -Hartree energ DENC   =      -124.39291599
  -exchange      EXHF   =         0.00000000
  -V(xc)+E(xc)   XCENC  =       -31.40627965
  PAW double counting   =      2023.94163070    -1911.62138759
  entropy T*S    EENTRO =        -0.00036561
  eigenvalues    EBANDS =       -82.34010879
  atomic energy  EATOM  =      1448.48460880
  Solvation  Ediel_sol  =         0.00000000
  ---------------------------------------------------
  free energy    TOTEN  =       -32.88777787 eV

  energy without entropy =      -32.88741226  energy(sigma->0) =      -32.88759507


--------------------------------------------------------------------------------------------------------




--------------------------------------- Iteration      1(  13)  ---------------------------------------


    POTLOK:  cpu time      0.0074: real time      0.0075
    SETDIJ:  cpu time      0.2168: real time      0.2174
     EDDAV:  cpu time      0.2597: real time      0.2611
       DOS:  cpu time      0.0010: real time      0.0010
    --------------------------------------------
      LOOP:  cpu time      0.4848: real time      0.4869

 eigenvalue-minimisations  :  1744
 total energy-change (2. order) :-0.2227034E-06  (-0.6907811E-07)
 number of electron      40.0000028 magnetization 
 augmentation part       -7.3478903 magnetization 

 Free energy of the ion-electron system (eV)
  ---------------------------------------------------
  alpha Z        PSCENC =        91.66130333
  Ewald energy   TEWEN  =     -1447.21426307
  -Hartree energ DENC   =      -124.39592525
  -exchange      EXHF   =         0.00000000
  -V(xc)+E(xc)   XCENC  =       -31.40589155
  PAW double counting   =      2023.81455292    -1911.49416101
  entropy T*S    EENTRO =        -0.00036488
  eigenvalues    EBANDS =       -82.33763737
  atomic energy  EATOM  =      1448.48460880
  Solvation  Ediel_sol  =         0.00000000
  ---------------------------------------------------
  free energy    TOTEN  =       -32.88777809 eV

  energy without entropy =      -32.88741322  energy(sigma->0) =      -32.88759566


--------------------------------------------------------------------------------------------------------




 average (electrostatic) potential at core
  the test charge radii are     1.1631  1.0808
  (the norm of the test charge is              1.0000)
       1 -33.0524       2 -33.0524       3 -33.0524       4 -33.0524       5 -54.6137
       6 -54.6137       7 -54.6137       8 -54.6137
 
 
 
 E-fermi :   4.3066     XC(G=0):  -9.4752     alpha+bet : -9.1315

 Fermi energy:         4.3065783112

 k-point     1 :       0.0000    0.0000    0.0000
  band No.  band energies     occupation 
      1     -10.7529      2.00000
      2     -10.2608      2.00000
      3      -9.4721      2.00000
      4      -8.7766      2.00000
      5      -5.1079      2.00000
      6      -3.5580      2.00000
      7      -3.4561      2.00000
      8      -1.4701      2.00000
      9      -1.2976      2.00000
     10      -0.0805      2.00000
     11       0.2394      2.00000
     12       0.2804      2.00000
     13       0.4991      2.00000
     14       0.6313      2.00000
     15       1.8267      2.00000
     16       1.9562      2.00000
     17       2.1526      2.00000
     18       2.1577      2.00000
     19       3.1338      2.00000
     20       4.0901      2.00000
     21       4.4589      0.00002
     22       5.7340      0.00000
     23       6.0233      0.00000
     24       6.0640      0.00000
     25       6.6769      0.00000
     26       6.9653      0.00000
     27       6.9851      0.00000
     28       8.1241      0.00000
     29       8.3124      0.00000
     30       8.9639      0.00000
     31       9.1341      0.00000
     32      10.3251      0.00000

 k-point     2 :       0.1667    0.0000    0.0000
  band No.  band energies     occupation 
      1     -10.5598      2.00000
      2     -10.0827      2.00000
      3      -9.3493      2.00000
      4      -8.7213      2.00000
      5      -5.3141      2.00000
      6      -3.8091      2.00000
      7      -3.6883      2.00000
      8      -1.8525      2.00000
      9      -1.4147      2.00000
     10      -0.0272      2.00000
     11       0.2117      2.00000
     12       0.2825      2.00000
     13       0.3542      2.00000
     14       0.6826      2.00000
     15       1.3319      2.00000
     16       1.9090      2.00000
     17       1.9824      2.00000
     18       2.2841      2.00000
     19       3.3356      2.00000
     20       4.0294      2.00000
     21       4.6900      0.00000
     22       5.3319      0.00000
     23       6.1369      0.00000
     24       6.1996      0.00000
     25       6.8023      0.00000
     26       6.8251      0.00000
     27       7.0358      0.00000
     28       7.8304      0.00000
     29       8.1933      0.00000
     30       8.3490      0.00000
     31       9.0482      0.00000
     32       9.3828      0.00000

 k-point     3 :       0.3333    0.0000    0.0000
  band No.  band energies     occupation 
      1     -10.0314      2.00000
      2      -9.6052      2.00000
      3      -9.1520      2.00000
      4      -8.7176      2.00000
      5      -5.7236      2.00000
      6      -4.6770      2.00000
      7      -4.0862      2.00000
      8      -2.9481      2.00000
      9      -1.1086      2.00000
     10      -0.0758      2.00000
     11       0.2071      2.00000
     12       0.7262      2.00000
     13       0.7591      2.00000
     14       1.1222      2.00000
     15       1.1655      2.00000
     16       1.3392      2.00000
     17       1.8414      2.00000
     18       2.1851      2.00000
     19       3.5322      2.00000
     20       3.7522      2.00000
     21       4.3685      0.07974
     22       5.0051      0.00000
     23       5.2117      0.00000
     24       5.4288      0.00000
     25       5.8920      0.00000
     26       6.1309      0.00000
     27       6.3008      0.00000
     28       7.1331      0.00000
     29       7.6655      0.00000
     30       7.7186      0.00000
     31       8.6971      0.00000
     32      10.2907      0.00000

 k-point     4 :       0.5000    0.0000    0.0000
  band No.  band energies     occupation 
      1      -9.3902      2.00000
      2      -9.3902      2.00000
      3      -9.0416      2.00000
      4      -9.0416      2.00000
      5      -5.5741      2.00000
      6      -5.5741      2.00000
      7      -3.8896      2.00000
      8      -3.8896      2.00000
      9      -0.3722      2.00000
     10      -0.3722      2.00000
     11       0.6395      2.00000
     12       0.6395      2.00000
     13       1.0691      2.00000
     14       1.0691      2.00000
     15       1.3720      2.00000
     16       1.3720      2.00000
     17       1.7999      2.00000
     18       1.7999      2.00000
     19       3.4012      2.00000
     20       3.4012      2.00000
     21       4.4042      0.00577
     22       4.4042      0.00577
     23       5.3740      0.00000
     24       5.3740      0.00000
     25       5.4813      0.00000
     26       5.4813      0.00000
     27       6.3088      0.00000
     28       6.3088      0.00000
     29       6.8917      0.00000
     30       6.8917      0.00000
     31       9.2477      0.00000
     32       9.2477      0.00000

 k-point     5 :       0.0000    0.1667    0.0000
  band No.  band energies     occupation 
      1     -10.6276      2.00000
      2     -10.1611      2.00000
      3      -9.4537      2.00000
      4      -8.8807      2.00000
      5      -5.3051      2.00000
      6      -3.9549      2.00000
      7      -3.6431      2.00000
      8      -1.8093      2.00000
      9      -1.5006      2.00000
     10       0.2009      2.00000
     11       0.6114      2.00000
     12       0.6937      2.00000
     13       0.7971      2.00000
     14       0.9053      2.00000
     15       1.7004      2.00000
     16       1.7859      2.00000
     17       2.0656      2.00000
     18       2.6417      2.00000
     19       3.3631      2.00000
     20       4.0217      2.00000
     21       4.7487      0.00000
     22       5.3536      0.00000
     23       5.8153      0.00000
     24       6.2061      0.00000
     25       6.2642      0.00000
     26       6.5290      0.00000
     27       6.9337      0.00000
     28       7.7539      0.00000
     29       8.0739      0.00000
     30       8.5269      0.00000
     31       9.0763      0.00000
     32      10.1695      0.00000

 k-point     6 :       0.1667    0.1667    0.0000
  band No.  band energies     occupation 
      1     -10.4439      2.00000
      2      -9.9847      2.00000
      3      -9.3416      2.00000
      4      -8.8015      2.00000
      5      -5.4467      2.00000
      6      -4.0567      2.00000
      7      -3.7084      2.00000
      8      -2.2346      2.00000
      9      -1.3646      2.00000
     10      -0.4061      2.00000
     11      -0.3010      2.00000
     12       0.4374      2.00000
     13       1.0896      2.00000
     14       1.2937      2.00000
     15       1.4887      2.00000
     16       1.7158      2.00000
     17       1.7763      2.00000
     18       2.5282      2.00000
     19       3.6014      2.00000
     20       3.7207      2.00000
     21       4.9392      0.00000
     22       5.0325      0.00000
     23       5.4506      0.00000
     24       6.1855      0.00000
     25       6.9186      0.00000
     26       7.1368      0.00000
     27       7.3988      0.00000
     28       7.7146      0.00000
     29       7.7415      0.00000
     30       8.1452      0.00000
     31       9.2186      0.00000
     32       9.7521      0.00000

 k-point     7 :       0.1667   -0.1667    0.0000
  band No.  band energies     occupation 
      1     -10.4364      2.00000
      2      -9.9920      2.00000
      3      -9.3293      2.00000
      4      -8.8250      2.00000
      5      -5.3736      2.00000
      6      -4.1311      2.00000
      7      -3.7877      2.00000
      8      -2.0550      2.00000
      9      -1.3627      2.00000
     10      -0.5338      2.00000
     11      -0.1139      2.00000
     12       0.2997      2.00000
     13       1.0240      2.00000
     14       1.3854      2.00000
     15       1.4295      2.00000
     16       1.6022      2.00000
     17       1.6616      2.00000
     18       2.6899      2.00000
     19       3.3770      2.00000
     20       4.1233      2.00000
     21       4.9611      0.00000
     22       5.3978      0.00000
     23       5.8241      0.00000
     24       5.9543      0.00000
     25       6.4883      0.00000
     26       6.7317      0.00000
     27       7.0984      0.00000
     28       7.3377      0.00000
     29       8.2075      0.00000
     30       8.3928      0.00000
     31       8.7989      0.00000
     32      10.2486      0.00000

 k-point     8 :       0.3333    0.1667    0.0000
  band No.  band energies     occupation 
      1      -9.9423      2.00000
      2      -9.5225      2.00000
      3      -9.1517      2.00000
      4      -8.7415      2.00000
      5      -5.7158      2.00000
      6      -4.6745      2.00000
      7      -3.9575      2.00000
      8      -3.0962      2.00000
      9      -1.0115      2.00000
     10      -0.7666      2.00000
     11      -0.4611      2.00000
     12       0.1363      2.00000
     13       0.8567      2.00000
     14       1.0560      2.00000
     15       1.3294      2.00000
     16       1.4260      2.00000
     17       1.7619      2.00000
     18       2.0675      2.00000
     19       3.4388      2.00000
     20       3.5001      2.00000
     21       4.4842      0.00000
     22       5.0684      0.00000
     23       5.3914      0.00000
     24       6.0742      0.00000
     25       6.3243      0.00000
     26       6.4175      0.00000
     27       7.2335      0.00000
     28       7.4136      0.00000
     29       7.6652      0.00000
     30       8.9568      0.00000
     31       9.3022      0.00000
     32       9.4336      0.00000

 k-point     9 :       0.3333   -0.1667    0.0000
  band No.  band energies     occupation 
      1      -9.9252      2.00000
      2      -9.5389      2.00000
      3      -9.1341      2.00000
      4      -8.7768      2.00000
      5      -5.6038      2.00000
      6      -4.7597      2.00000
      7      -4.0761      2.00000
      8      -2.9792      2.00000
      9      -0.9575      2.00000
     10      -0.6312      2.00000
     11      -0.5587      2.00000
     12       0.1001      2.00000
     13       0.7232      2.00000
     14       1.1230      2.00000
     15       1.3362      2.00000
     16       1.4661      2.00000
     17       1.6150      2.00000
     18       1.9683      2.00000
     19       3.1845      2.00000
     20       4.0943      2.00000
     21       4.6969      0.00000
     22       5.3275      0.00000
     23       5.4100      0.00000
     24       5.6120      0.00000
     25       6.4129      0.00000
     26       6.6669      0.00000
     27       6.6956      0.00000
     28       6.9690      0.00000
     29       7.8629      0.00000
     30       8.5385      0.00000
     31       9.0821      0.00000
     32      10.0847      0.00000

 k-point    10 :       0.5000    0.1667    0.0000
  band No.  band energies     occupation 
      1      -9.3503      2.00000
      2      -9.3353      2.00000
      3      -9.0149      2.00000
      4      -9.0062      2.00000
      5      -5.5343      2.00000
      6      -5.4511      2.00000
      7      -3.8994      2.00000
      8      -3.8160      2.00000
      9      -0.4969      2.00000
     10      -0.4635      2.00000
     11      -0.0360      2.00000
     12       0.1561      2.00000
     13       0.4443      2.00000
     14       0.5664      2.00000
     15       0.7547      2.00000
     16       0.7868      2.00000
     17       1.9428      2.00000
     18       2.0707      2.00000
     19       3.3402      2.00000
     20       3.8247      2.00000
     21       4.5523      0.00000
     22       4.6074      0.00000
     23       5.7052      0.00000
     24       5.7339      0.00000
     25       6.1707      0.00000
     26       6.3254      0.00000
     27       6.8528      0.00000
     28       6.9630      0.00000
     29       7.7760      0.00000
     30       7.8975      0.00000
     31       8.2681      0.00000
     32       9.3714      0.00000

 k-point    11 :       0.0000    0.3333    0.0000
  band No.  band energies     occupation 
      1     -10.2757      2.00000
      2      -9.8972      2.00000
      3      -9.4822      2.00000
      4      -9.2004      2.00000
      5      -5.5518      2.00000
      6      -4.7635      2.00000
      7      -3.7990      2.00000
      8      -2.7473      2.00000
      9      -1.1795      2.00000
     10       0.3834      2.00000
     11       0.9148      2.00000
     12       1.0483      2.00000
     13       1.4967      2.00000
     14       1.7254      2.00000
     15       1.8012      2.00000
     16       1.9499      2.00000
     17       1.9639      2.00000
     18       3.1990      2.00000
     19       3.6850      2.00000
     20       3.6864      2.00000
     21       4.6881      0.00000
     22       5.1618      0.00000
     23       5.4236      0.00000
     24       5.7828      0.00000
     25       6.0715      0.00000
     26       6.1606      0.00000
     27       6.4523      0.00000
     28       7.1041      0.00000
     29       7.4322      0.00000
     30       7.6371      0.00000
     31       9.5669      0.00000
     32      10.5307      0.00000

 k-point    12 :       0.1667    0.3333    0.0000
  band No.  band energies     occupation 
      1     -10.1150      2.00000
      2      -9.7325      2.00000
      3      -9.3784      2.00000
      4      -9.0827      2.00000
      5      -5.5524      2.00000
      6      -4.7074      2.00000
      7      -3.7265      2.00000
      8      -2.8715      2.00000
      9      -1.0378      2.00000
     10      -0.3891      2.00000
     11      -0.3233      2.00000
     12       0.4450      2.00000
     13       0.7090      2.00000
     14       0.8664      2.00000
     15       1.7350      2.00000
     16       1.8495      2.00000
     17       2.4959      2.00000
     18       2.7464      2.00000
     19       3.6558      2.00000
     20       3.6571      2.00000
     21       4.8168      0.00000
     22       5.4747      0.00000
     23       5.6378      0.00000
     24       6.1398      0.00000
     25       6.6057      0.00000
     26       6.6536      0.00000
     27       7.0930      0.00000
     28       7.6913      0.00000
     29       7.8828      0.00000
     30       8.0727      0.00000
     31       9.5626      0.00000
     32       9.9715      0.00000

 k-point    13 :       0.1667   -0.3333    0.0000
  band No.  band energies     occupation 
      1     -10.0995      2.00000
      2      -9.7473      2.00000
      3      -9.3642      2.00000
      4      -9.1073      2.00000
      5      -5.4776      2.00000
      6      -4.7765      2.00000
      7      -3.7892      2.00000
      8      -2.7799      2.00000
      9      -0.9752      2.00000
     10      -0.6248      2.00000
     11       0.0181      2.00000
     12       0.3264      2.00000
     13       0.4574      2.00000
     14       0.9278      2.00000
     15       1.8759      2.00000
     16       2.0749      2.00000
     17       2.3479      2.00000
     18       2.4312      2.00000
     19       3.4949      2.00000
     20       4.0301      2.00000
     21       5.1338      0.00000
     22       5.6173      0.00000
     23       5.7089      0.00000
     24       6.0801      0.00000
     25       6.3002      0.00000
     26       6.7956      0.00000
     27       6.8960      0.00000
     28       7.0424      0.00000
     29       7.9454      0.00000
     30       8.3931      0.00000
     31       9.0765      0.00000
     32      10.4678      0.00000

 k-point    14 :       0.3333    0.3333    0.0000
  band No.  band energies     occupation 
      1      -9.6902      2.00000
      2      -9.3242      2.00000
      3      -9.1767      2.00000
      4      -8.8851      2.00000
      5      -5.5636      2.00000
      6      -4.8256      2.00000
      7      -3.7436      2.00000
      8      -3.3532      2.00000
      9      -1.2323      2.00000
     10      -0.9656      2.00000
     11      -0.8697      2.00000
     12      -0.4775      2.00000
     13       0.1288      2.00000
     14       0.5869      2.00000
     15       0.8471      2.00000
     16       0.9488      2.00000
     17       1.4825      2.00000
     18       2.1183      2.00000
     19       3.3123      2.00000
     20       3.6725      2.00000
     21       4.7168      0.00000
     22       6.0626      0.00000
     23       6.2933      0.00000
     24       6.4524      0.00000
     25       7.0468      0.00000
     26       7.5046      0.00000
     27       8.1373      0.00000
     28       8.1472      0.00000
     29       8.5207      0.00000
     30       8.8103      0.00000
     31       9.7912      0.00000
     32       9.9215      0.00000

 k-point    15 :       0.3333   -0.3333    0.0000
  band No.  band energies     occupation 
      1      -9.6560      2.00000
      2      -9.3558      2.00000
      3      -9.1677      2.00000
      4      -8.9131      2.00000
      5      -5.3979      2.00000
      6      -4.9624      2.00000
      7      -3.9215      2.00000
      8      -3.1990      2.00000
      9      -1.2569      2.00000
     10      -0.8796      2.00000
     11      -0.6751      2.00000
     12      -0.5116      2.00000
     13       0.1374      2.00000
     14       0.2681      2.00000
     15       0.8547      2.00000
     16       1.0633      2.00000
     17       1.1646      2.00000
     18       2.3582      2.00000
     19       3.1075      2.00000
     20       4.2458      1.91448
     21       4.7482      0.00000
     22       6.0291      0.00000
     23       6.1959      0.00000
     24       6.7821      0.00000
     25       6.9643      0.00000
     26       6.9658      0.00000
     27       7.1247      0.00000
     28       8.2964      0.00000
     29       8.7792      0.00000
     30       9.5173      0.00000
     31       9.6248      0.00000
     32      10.0755      0.00000

 k-point    16 :       0.5000    0.3333    0.0000
  band No.  band energies     occupation 
      1      -9.2568      2.00000
      2      -9.2249      2.00000
      3      -8.9593      2.00000
      4      -8.9386      2.00000
      5      -5.3997      2.00000
      6      -5.2243      2.00000
      7      -3.9011      2.00000
      8      -3.7204      2.00000
      9      -0.9662      2.00000
     10      -0.9660      2.00000
     11      -0.5735      2.00000
     12      -0.5223      2.00000
     13      -0.2939      2.00000
     14      -0.0704      2.00000
     15       0.3156      2.00000
     16       0.4279      2.00000
     17       1.2682      2.00000
     18       1.4168      2.00000
     19       3.0600      2.00000
     20       4.0630      2.00000
     21       5.4358      0.00000
     22       5.4865      0.00000
     23       6.2791      0.00000
     24       6.7566      0.00000
     25       7.4119      0.00000
     26       7.5899      0.00000
     27       7.6121      0.00000
     28       7.9809      0.00000
     29       8.8946      0.00000
     30       9.3770      0.00000
     31       9.6893      0.00000
     32       9.7761      0.00000

 k-point    17 :       0.0000    0.5000    0.0000
  band No.  band energies     occupation 
      1      -9.7918      2.00000
      2      -9.7918      2.00000
      3      -9.5730      2.00000
      4      -9.5730      2.00000
      5      -5.3942      2.00000
      6      -5.3942      2.00000
      7      -3.4981      2.00000
      8      -3.4981      2.00000
      9      -0.4824      2.00000
     10      -0.4824      2.00000
     11       1.4933      2.00000
     12       1.4933      2.00000
     13       1.5551      2.00000
     14       1.5551      2.00000
     15       2.3466      2.00000
     16       2.3466      2.00000
     17       2.5395      2.00000
     18       2.5396      2.00000
     19       3.5019      2.00000
     20       3.5019      2.00000
     21       4.9208      0.00000
     22       4.9208      0.00000
     23       5.4949      0.00000
     24       5.4949      0.00000
     25       6.0976      0.00000
     26       6.0976      0.00000
     27       6.4606      0.00000
     28       6.4606      0.00000
     29       7.0384      0.00000
     30       7.0384      0.00000
     31      10.2860      0.00000
     32      10.2861      0.00000

 k-point    18 :       0.1667    0.5000    0.0000
  band No.  band energies     occupation 
      1      -9.6681      2.00000
      2      -9.6511      2.00000
      3      -9.4406      2.00000
      4      -9.4274      2.00000
      5      -5.3403      2.00000
      6      -5.2809      2.00000
      7      -3.4749      2.00000
      8      -3.4287      2.00000
      9      -0.4323      2.00000
     10      -0.4002      2.00000
     11      -0.1518      2.00000
     12       0.1641      2.00000
     13       0.3774      2.00000
     14       0.4461      2.00000
     15       1.7974      2.00000
     16       1.9657      2.00000
     17       2.4656      2.00000
     18       2.9311      2.00000
     19       3.6873      2.00000
     20       3.9046      2.00000
     21       5.0093      0.00000
     22       5.2292      0.00000
     23       6.1415      0.00000
     24       6.1481      0.00000
     25       6.3242      0.00000
     26       6.7577      0.00000
     27       7.0848      0.00000
     28       7.3379      0.00000
     29       7.8420      0.00000
     30       8.0601      0.00000
     31       9.3697      0.00000
[...]
     32       9.9785      0.00000

 k-point    32 :       0.1667    0.3333    0.5000
  band No.  band energies     occupation 
      1      -9.9680      2.00000
      2      -9.9680      2.00000
      3      -9.1864      2.00000
      4      -9.1863      2.00000
      5      -5.1840      2.00000
      6      -5.1840      2.00000
      7      -3.3562      2.00000
      8      -3.3562      2.00000
      9      -0.5679      2.00000
     10      -0.5679      2.00000
     11       0.2294      2.00000
     12       0.2294      2.00000
     13       0.7235      2.00000
     14       0.7235      2.00000
     15       1.9012      2.00000
     16       1.9012      2.00000
     17       2.3816      2.00000
     18       2.3816      2.00000
     19       3.2623      2.00000
     20       3.2623      2.00000
     21       5.1465      0.00000
     22       5.1465      0.00000
     23       6.1792      0.00000
     24       6.1792      0.00000
     25       6.9439      0.00000
     26       6.9439      0.00000
     27       7.2941      0.00000
     28       7.2941      0.00000
     29       8.1262      0.00000
     30       8.1262      0.00000
     31       9.8584      0.00000
     32       9.8584      0.00000

 k-point    33 :       0.1667   -0.3333    0.5000
  band No.  band energies     occupation 
      1      -9.9603      2.00000
      2      -9.9603      2.00000
      3      -9.1992      2.00000
      4      -9.1992      2.00000
      5      -5.1536      2.00000
      6      -5.1536      2.00000
      7      -3.4020      2.00000
      8      -3.4020      2.00000
      9      -0.6369      2.00000
     10      -0.6369      2.00000
     11       0.4770      2.00000
     12       0.4770      2.00000
     13       0.7789      2.00000
     14       0.7789      2.00000
     15       1.5522      2.00000
     16       1.5522      2.00000
     17       2.5467      2.00000
     18       2.5467      2.00000
     19       3.1144      2.00000
     20       3.1144      2.00000
     21       5.6617      0.00000
     22       5.6617      0.00000
     23       5.9620      0.00000
     24       5.9620      0.00000
     25       6.4746      0.00000
     26       6.4746      0.00000
     27       7.5374      0.00000
     28       7.5374      0.00000
     29       8.2299      0.00000
     30       8.2299      0.00000
     31       9.5957      0.00000
     32       9.5957      0.00000

 k-point    34 :       0.3333    0.3333    0.5000
  band No.  band energies     occupation 
      1      -9.5595      2.00000
      2      -9.5595      2.00000
      3      -8.9813      2.00000
      4      -8.9813      2.00000
      5      -5.2219      2.00000
      6      -5.2219      2.00000
      7      -3.5426      2.00000
      8      -3.5426      2.00000
      9      -1.2846      2.00000
     10      -1.2846      2.00000
     11      -0.5327      2.00000
     12      -0.5327      2.00000
     13       0.5294      2.00000
     14       0.5294      2.00000
     15       1.0088      2.00000
     16       1.0088      2.00000
     17       1.9281      2.00000
     18       1.9281      2.00000
     19       2.7629      2.00000
     20       2.7629      2.00000
     21       5.5830      0.00000
     22       5.5830      0.00000
     23       6.3935      0.00000
     24       6.3935      0.00000
     25       7.3691      0.00000
     26       7.3691      0.00000
     27       8.3202      0.00000
     28       8.3202      0.00000
     29       9.2340      0.00000
     30       9.2340      0.00000
     31       9.6013      0.00000
     32       9.6013      0.00000

 k-point    35 :       0.3333   -0.3333    0.5000
  band No.  band energies     occupation 
      1      -9.5419      2.00000
      2      -9.5419      2.00000
      3      -9.0077      2.00000
      4      -9.0077      2.00000
      5      -5.1595      2.00000
      6      -5.1594      2.00000
      7      -3.6467      2.00000
      8      -3.6467      2.00000
      9      -1.3053      2.00000
     10      -1.3053      2.00000
     11      -0.2984      2.00000
     12      -0.2984      2.00000
     13       0.4518      2.00000
     14       0.4519      2.00000
     15       0.9587      2.00000
     16       0.9587      2.00000
     17       1.8914      2.00000
     18       1.8914      2.00000
     19       2.6561      2.00000
     20       2.6561      2.00000
     21       5.9972      0.00000
     22       5.9972      0.00000
     23       6.3573      0.00000
     24       6.3573      0.00000
     25       7.2764      0.00000
     26       7.2764      0.00000
     27       7.9365      0.00000
     28       7.9365      0.00000
     29       8.8678      0.00000
     30       8.8678      0.00000
     31      10.0266      0.00000
     32      10.0266      0.00000

 k-point    36 :       0.5000    0.3333    0.5000
  band No.  band energies     occupation 
      1      -9.2285      2.00000
      2      -9.2285      2.00000
      3      -8.9659      2.00000
      4      -8.9659      2.00000
      5      -5.2690      2.00000
      6      -5.2690      2.00000
      7      -3.8666      2.00000
      8      -3.8666      2.00000
      9      -1.0905      2.00000
     10      -1.0905      2.00000
     11      -0.8031      2.00000
     12      -0.8031      2.00000
     13       0.2508      2.00000
     14       0.2508      2.00000
     15       0.4940      2.00000
     16       0.4940      2.00000
     17       1.8321      2.00000
     18       1.8321      2.00000
     19       2.4098      2.00000
     20       2.4098      2.00000
     21       5.9210      0.00000
     22       5.9210      0.00000
     23       6.7267      0.00000
     24       6.7267      0.00000
     25       7.1877      0.00000
     26       7.1877      0.00000
     27       8.4345      0.00000
     28       8.4345      0.00000
     29       8.9367      0.00000
     30       8.9367      0.00000
     31       9.5534      0.00000
     32       9.5534      0.00000

 k-point    37 :       0.0000    0.5000    0.5000
  band No.  band energies     occupation 
      1      -9.7650      2.00000
      2      -9.7650      2.00000
      3      -9.6058      2.00000
      4      -9.6058      2.00000
      5      -5.2781      2.00000
      6      -5.2781      2.00000
      7      -3.7849      2.00000
      8      -3.7849      2.00000
      9       0.5891      2.00000
     10       0.5891      2.00000
     11       0.8665      2.00000
     12       0.8665      2.00000
     13       1.5358      2.00000
     14       1.5358      2.00000
     15       1.5820      2.00000
     16       1.5820      2.00000
     17       2.8422      2.00000
     18       2.8422      2.00000
     19       3.5356      2.00000
     20       3.5356      2.00000
     21       4.8106      0.00000
     22       4.8106      0.00000
     23       5.2544      0.00000
     24       5.2544      0.00000
     25       6.2585      0.00000
     26       6.2585      0.00000
     27       6.6820      0.00000
     28       6.6820      0.00000
     29       7.7376      0.00000
     30       7.7376      0.00000
     31       9.9314      0.00000
     32       9.9314      0.00000

 k-point    38 :       0.1667    0.5000    0.5000
  band No.  band energies     occupation 
      1      -9.6363      2.00000
      2      -9.6363      2.00000
      3      -9.4628      2.00000
      4      -9.4628      2.00000
      5      -5.2104      2.00000
      6      -5.2104      2.00000
      7      -3.6887      2.00000
      8      -3.6887      2.00000
      9      -0.1718      2.00000
     10      -0.1718      2.00000
     11       0.0139      2.00000
     12       0.0139      2.00000
     13       1.0186      2.00000
     14       1.0186      2.00000
     15       1.3199      2.00000
     16       1.3199      2.00000
     17       2.4966      2.00000
     18       2.4966      2.00000
     19       3.2336      2.00000
     20       3.2336      2.00000
     21       5.6036      0.00000
     22       5.6036      0.00000
     23       6.0476      0.00000
     24       6.0476      0.00000
     25       6.7471      0.00000
     26       6.7471      0.00000
     27       7.5046      0.00000
     28       7.5046      0.00000
     29       8.1049      0.00000
     30       8.1049      0.00000
     31       9.7704      0.00000
     32       9.7704      0.00000

 k-point    39 :       0.3333    0.5000    0.5000
  band No.  band energies     occupation 
      1      -9.3445      2.00000
      2      -9.3445      2.00000
      3      -9.1312      2.00000
      4      -9.1312      2.00000
      5      -5.1470      2.00000
      6      -5.1470      2.00000
      7      -3.6546      2.00000
      8      -3.6546      2.00000
      9      -1.1631      2.00000
     10      -1.1631      2.00000
     11      -1.0581      2.00000
     12      -1.0581      2.00000
     13       0.5920      2.00000
     14       0.5920      2.00000
     15       0.7843      2.00000
     16       0.7843      2.00000
     17       1.7997      2.00000
     18       1.7997      2.00000
     19       2.4660      2.00000
     20       2.4660      2.00000
     21       6.1089      0.00000
     22       6.1089      0.00000
     23       7.0332      0.00000
     24       7.0332      0.00000
     25       7.5773      0.00000
     26       7.5773      0.00000
     27       8.6952      0.00000
     28       8.6952      0.00000
     29       9.2418      0.00000
     30       9.2418      0.00000
     31       9.8065      0.00000
     32       9.8065      0.00000

 k-point    40 :       0.5000    0.5000    0.5000
  band No.  band energies     occupation 
      1      -9.1753      2.00000
      2      -9.1753      2.00000
      3      -8.9326      2.00000
      4      -8.9326      2.00000
      5      -5.1888      2.00000
      6      -5.1888      2.00000
      7      -3.8092      2.00000
      8      -3.8092      2.00000
      9      -1.3276      2.00000
     10      -1.3276      2.00000
     11      -1.0187      2.00000
     12      -1.0187      2.00000
     13      -0.0571      2.00000
     14      -0.0571      2.00000
     15       0.0478      2.00000
     16       0.0478      2.00000
     17       1.8656      2.00000
     18       1.8656      2.00000
     19       2.4575      2.00000
     20       2.4575      2.00000
     21       5.8993      0.00000
     22       5.8993      0.00000
     23       6.9313      0.00000
     24       6.9313      0.00000
     25       8.0908      0.00000
     26       8.0908      0.00000
     27       9.0100      0.00000
     28       9.0100      0.00000
     29       9.7608      0.00000
     30       9.7608      0.00000
     31      10.3829      0.00000
     32      10.3829      0.00000


--------------------------------------------------------------------------------------------------------


 soft charge-density along one line, spin component            1
         0         1         2         3         4         5         6         7         8         9
 total charge-density along one line
 
 pseudopotential strength for first ion, spin component:            1
 14.415  17.982   0.038   0.022  -0.006   0.069   0.040  -0.011
 17.982  22.445   0.048   0.028  -0.008   0.087   0.050  -0.014
  0.038   0.048   3.210  -0.002   0.000   5.464  -0.003   0.001
  0.022   0.028  -0.002   3.209   0.000  -0.003   5.462   0.000
 -0.006  -0.008   0.000   0.000   3.212   0.001   0.000   5.466
  0.069   0.087   5.464  -0.003   0.001   9.357  -0.005   0.001
  0.040   0.050  -0.003   5.462   0.000  -0.005   9.354   0.001
 -0.011  -0.014   0.001   0.000   5.466   0.001   0.001   9.361
  0.001   0.001  -0.002   0.000   0.006  -0.003   0.000   0.011
 -0.004  -0.004   0.005   0.012   0.000   0.009   0.021   0.000
 -0.002  -0.002  -0.003   0.005   0.001  -0.006   0.009   0.002
  0.000   0.001   0.000  -0.001   0.005   0.000  -0.002   0.009
  0.001   0.002  -0.011   0.000  -0.002  -0.021   0.000  -0.003
 total augmentation occupancy for first ion, spin component:            1
  3.064  -0.944   0.316   0.089  -0.085  -0.058  -0.004   0.021   0.007  -0.007   0.054   0.032   0.015
 -0.944   0.819  -0.407  -0.219   0.077   0.063   0.026  -0.015  -0.005   0.011  -0.041  -0.026  -0.009
  0.316  -0.407   1.291   0.058   0.003  -0.214  -0.005  -0.001  -0.004   0.034  -0.104  -0.001   0.004
  0.089  -0.219   0.058   1.667   0.084  -0.006  -0.301  -0.023  -0.011  -0.023   0.020  -0.040  -0.008
 -0.085   0.077   0.003   0.084   1.336  -0.001  -0.023  -0.236   0.143   0.002  -0.017   0.021  -0.005
 -0.058   0.063  -0.214  -0.006  -0.001   0.040   0.001   0.000   0.001  -0.006   0.019   0.000  -0.000
 -0.004   0.026  -0.005  -0.301  -0.023   0.001   0.061   0.006   0.001   0.004  -0.002   0.008   0.002
  0.021  -0.015  -0.001  -0.023  -0.236   0.000   0.006   0.046  -0.026  -0.000   0.003  -0.003   0.001
  0.007  -0.005  -0.004  -0.011   0.143   0.001   0.001  -0.026   0.031  -0.000   0.003   0.004  -0.000
 -0.007   0.011   0.034  -0.023   0.002  -0.006   0.004  -0.000  -0.000   0.013  -0.008  -0.002   0.001
  0.054  -0.041  -0.104   0.020  -0.017   0.019  -0.002   0.003   0.003  -0.008   0.044   0.008  -0.002
  0.032  -0.026  -0.001  -0.040   0.021   0.000   0.008  -0.003   0.004  -0.002   0.008   0.016   0.001
  0.015  -0.009   0.004  -0.008  -0.005  -0.000   0.002   0.001  -0.000   0.001  -0.002   0.001   0.009


------------------------ aborting loop because EDIFF is reached ----------------------------------------


    CHARGE:  cpu time      0.0051: real time      0.0051
    FORLOC:  cpu time      0.0002: real time      0.0002
    FORNL :  cpu time      0.0240: real time      0.0242
    STRESS:  cpu time      0.2428: real time      0.2438
    FORCOR:  cpu time      0.0065: real time      0.0066
    FORHAR:  cpu time      0.0016: real time      0.0017
    MIXING:  cpu time      0.0006: real time      0.0006
    OFIELD:  cpu time      0.0000: real time      0.0000

  FORCE on cell =-STRESS in cart. coord.  units (eV):
  Direction    XX          YY          ZZ          XY          YZ          ZX
  --------------------------------------------------------------------------------------
  Alpha Z    91.66130    91.66130    91.66130
  Ewald    -472.36859  -516.05225  -458.79554    -6.24256     0.00009     0.00004
  Hartree    47.45947    34.32756    42.61072    -3.36048     0.00002     0.00000
  E(xc)    -142.16251  -142.16360  -142.55526    -0.01262    -0.00000     0.00000
  Local    -145.85536   -95.99519  -161.38058    10.91822    -0.00009    -0.00003
  n-local   242.30170   241.29923   246.15535    -0.25731     0.00000     0.00000
  augment   -11.29094   -11.74570   -12.14155     0.10499     0.00000     0.00000
  Kinetic   390.91106   399.18827   408.41421    -1.27375    -0.00002    -0.00001
  Fock        0.00000     0.00000     0.00000     0.00000     0.00000     0.00000
  -------------------------------------------------------------------------------------
  Total       0.65614     0.51962    13.96865    -0.12352    -0.00000    -0.00000
  in kB       5.68678     4.50351   121.06645    -1.07056    -0.00002    -0.00000
  external pressure =       43.75 kB  Pullay stress =        0.00 kB


 VOLUME and BASIS-vectors are now :
 -----------------------------------------------------------------------------
  energy-cutoff  :      360.00
  volume of cell :      184.86
      direct lattice vectors                 reciprocal lattice vectors
     3.858100176  0.000000000  0.000000000     0.259194929  0.000000000  0.000000000
     0.000000000  4.526575088  0.000000000     0.000000000  0.220917577  0.000000000
     0.000000000  0.000000000 10.585176468     0.000000000  0.000000000  0.094471736

  length of vectors
     3.858100176  4.526575088 10.585176468     0.259194929  0.220917577  0.094471736


 FORCES acting on ions
    electron-ion (+dipol)            ewald-force                    non-local-force                 convergence-correction
 -----------------------------------------------------------------------------------------------
   -.215E+01 0.126E+02 0.142E+02   0.243E+01 -.149E+02 -.157E+02   -.341E-01 0.244E+01 0.258E+01   -.669E-04 0.270E-05 -.357E-03
   -.215E+01 0.126E+02 -.142E+02   0.243E+01 -.149E+02 0.157E+02   -.341E-01 0.244E+01 -.258E+01   -.669E-04 0.305E-05 0.358E-03
   0.215E+01 -.126E+02 -.142E+02   -.243E+01 0.149E+02 0.157E+02   0.341E-01 -.244E+01 -.258E+01   0.671E-04 -.283E-05 0.356E-03
   0.215E+01 -.126E+02 0.142E+02   -.243E+01 0.149E+02 -.157E+02   0.341E-01 -.244E+01 0.258E+01   0.668E-04 -.304E-05 -.357E-03
   -.806E+00 -.146E+02 -.178E+02   0.705E+00 0.162E+02 0.193E+02   0.178E+00 -.181E+01 -.125E+01   0.986E-04 -.243E-03 0.296E-03
   -.806E+00 -.146E+02 0.178E+02   0.705E+00 0.162E+02 -.193E+02   0.178E+00 -.181E+01 0.125E+01   0.990E-04 -.244E-03 -.293E-03
   0.806E+00 0.146E+02 0.178E+02   -.705E+00 -.162E+02 -.193E+02   -.178E+00 0.181E+01 0.125E+01   -.986E-04 0.243E-03 -.294E-03
   0.806E+00 0.146E+02 -.178E+02   -.705E+00 -.162E+02 0.193E+02   -.178E+00 0.181E+01 -.125E+01   -.992E-04 0.243E-03 0.292E-03
 -----------------------------------------------------------------------------------------------
   0.136E-05 0.197E-04 -.107E-05   0.233E-14 0.711E-14 -.213E-13   0.137E-04 0.399E-03 -.997E-06   -.112E-06 -.680E-06 0.405E-06
 
 
 POSITION                                       TOTAL-FORCE (eV/Angst)
 -----------------------------------------------------------------------------------
      3.64842      4.14769      1.23098         0.243559      0.108087      1.033742
      1.71937      1.88440      4.06160         0.243558      0.108084     -1.033728
      2.89357      3.98702      9.35419        -0.243616     -0.108052     -1.033693
      0.96452      1.72374      6.52357        -0.243610     -0.108054      1.033680
      3.64842      3.58524      3.75268         0.076796     -0.191306      0.282274
      1.71937      1.32195      1.53991         0.076798     -0.191310     -0.282280
      2.89357      0.02290      6.83250        -0.076743      0.191276     -0.282197
      0.96452      2.28618      9.04526        -0.076742      0.191274      0.282202
 -----------------------------------------------------------------------------------
    total drift:                                0.000015      0.000418     -0.000002


--------------------------------------------------------------------------------------------------------



  FREE ENERGIE OF THE ION-ELECTRON SYSTEM (eV)
  ---------------------------------------------------
  free  energy   TOTEN  =       -32.88777809 eV

  energy  without entropy=      -32.88741322  energy(sigma->0) =      -32.88759566
 


--------------------------------------------------------------------------------------------------------


    POTLOK:  cpu time      0.2245: real time      0.2249


--------------------------------------------------------------------------------------------------------


     LOOP+:  cpu time      7.8183: real time      7.8569
    4ORBIT:  cpu time      0.0000: real time      0.0000

 total amount of memory used by VASP MPI-rank0    36587. kBytes
=======================================================================

   base      :      30000. kBytes
   nonl-proj :       5001. kBytes
   fftplans  :        306. kBytes
   grid      :        466. kBytes
   one-center:         16. kBytes
   wavefun   :        798. kBytes
 
  
  
 General timing and accounting informations for this job:
 ========================================================
  
                  Total CPU time used (sec):        9.423
                            User time (sec):        9.129
                          System time (sec):        0.294
                         Elapsed time (sec):        9.715
  
                   Maximum memory used (kb):      174740.
                   Average memory used (kb):          N/A
  
                          Minor page faults:        19399
                          Major page faults:           78
                 Voluntary context switches:         1945
