 vasp.6.4.2 20Jul23 (build Oct 12 2023 10:31:02) complex                         
 executed on              LinuxNV date 2024.11.01  21:57:59
 running  128 mpi-ranks, with    1 threads/rank, on    2 nodes
 distrk:  each k-point on   64 cores,    2 groups
 distr:  one band on NCORE=   8 cores,    8 groups


--------------------------------------------------------------------------------------------------------


 INCAR:
   ENCUT = 520.000000
   SIGMA = 0.050000
   EDIFF = 1.00e-06
   ALGO = N
   GGA = PE
   PREC = Accurate
   SYSTEM = 01_AOPT
   ICHARG = 0
   ISMEAR = 0
   ISPIN = 2
   ISTART = 1
   ISYM = -1
   KPAR = 2
   LORBIT = 11
   NBANDS = 220
   NELM = 100
   NELMIN = 5
   NPAR = 8
   LASPH = .TRUE.
   LCHARG = .FALSE.
   LWAVE = .FALSE.
   LREAL = .FALSE.

 POTCAR:    PAW_PBE Ge 05Jan2001                  
 POTCAR:    PAW_PBE Se 06Sep2000                  
 -----------------------------------------------------------------------------
|                                                                             |
|           W    W    AA    RRRRR   N    N  II  N    N   GGGG   !!!           |
|           W    W   A  A   R    R  NN   N  II  NN   N  G    G  !!!           |
|           W    W  A    A  R    R  N N  N  II  N N  N  G       !!!           |
|           W WW W  AAAAAA  RRRRR   N  N N  II  N  N N  G  GGG   !            |
|           WW  WW  A    A  R   R   N   NN  II  N   NN  G    G                |
|           W    W  A    A  R    R  N    N  II  N    N   GGGG   !!!           |
|                                                                             |
|     You use a magnetic or noncollinear calculation, but did not specify     |
|     the initial magnetic moment with the MAGMOM tag. Note that a            |
|     default of 1 will be used for all atoms. This ferromagnetic setup       |
|     may break the symmetry of the crystal, in particular it may rule        |
|     out finding an antiferromagnetic solution. Thence, we recommend         |
|     setting the initial magnetic moment manually or verifying carefully     |
|     that this magnetic setup is desired.                                    |
|                                                                             |
 -----------------------------------------------------------------------------

 POTCAR:    PAW_PBE Ge 05Jan2001                  
   VRHFIN =Ge: s2p2                                                                                 
   LEXCH  = PE                                                                                      
   EATOM  =   104.9960 eV,    7.7170 Ry                                                             
                                                                                                    
   TITEL  = PAW_PBE Ge 05Jan2001                                                                    
   LULTRA =        F    use ultrasoft PP ?                                                          
   IUNSCR =        1    unscreen: 0-lin 1-nonlin 2-no                                               
   RPACOR =    2.170    partial core radius                                                         
   POMASS =   72.610; ZVAL   =    4.000    mass and valenz                                          
   RCORE  =    2.300    outmost cutoff radius                                                       
   RWIGS  =    2.300; RWIGS  =    1.217    wigner-seitz radius (au A)                               
   ENMAX  =  173.807; ENMIN  =  130.355 eV                                                          
   ICORE  =        3    local potential                                                             
   LCOR   =        T    correct aug charges                                                         
   LPAW   =        T    paw PP                                                                      
   EAUG   =  385.843                                                                                
   DEXC   =    0.000                                                                                
   RMAX   =    2.342    core radius for proj-oper                                                   
   RAUG   =    1.300    factor for augmentation sphere                                              
   RDEP   =    2.318    radius for radial grids                                                     
   RDEPT  =    2.103    core radius for aug-charge                                                  
                                                                                                    
   Atomic configuration                                                                             
   10 entries                                                                                       
     n  l   j            E        occ.                                                              
     1  0  0.50    -10959.8463   2.0000                                                             
     2  0  0.50     -1371.6056   2.0000                                                             
     2  1  1.50     -1198.4791   6.0000                                                             
     3  0  0.50      -168.4733   2.0000                                                             
     3  1  1.50      -115.6019   6.0000                                                             
     3  2  2.50       -29.3106  10.0000                                                             
     4  0  0.50       -11.7309   2.0000                                                             
     4  1  0.50        -3.8952   2.0000                                                             
     4  2  1.50        -4.0817   0.0000                                                             
     4  3  2.50        -4.0817   0.0000                                                             
   Description                                                                                      
     l       E           TYP  RCUT    TYP  RCUT                                                     
     0    -11.7309493     23  2.300                                                                 
     0     -7.4578696     23  2.300                                                                 
     1     -3.8952261     23  2.300                                                                 
     1      6.1178114     23  2.300                                                                 
     2     -4.0817478     23  2.300                                                                 
     3     -1.3605826      7  2.300                                                                 
  local pseudopotential read in
  partial core-charges read in
  partial kinetic energy density read in
  atomic valenz-charges read in
  non local Contribution for L=            0  read in
    real space projection operators read in
  non local Contribution for L=            0  read in
    real space projection operators read in
  non local Contribution for L=            1  read in
    real space projection operators read in
  non local Contribution for L=            1  read in
    real space projection operators read in
  non local Contribution for L=            2  read in
    real space projection operators read in
    PAW grid and wavefunctions read in
 
   number of l-projection  operators is LMAX  =            5
   number of lm-projection operators is LMMAX =           13
 
 POTCAR:    PAW_PBE Se 06Sep2000                  
   VRHFIN =Se: s2p4                                                                                 
   LEXCH  = PE                                                                                      
   EATOM  =   257.1286 eV,   18.8984 Ry                                                             
                                                                                                    
   TITEL  = PAW_PBE Se 06Sep2000                                                                    
   LULTRA =        F    use ultrasoft PP ?                                                          
   IUNSCR =        1    unscreen: 0-lin 1-nonlin 2-no                                               
   RPACOR =    1.900    partial core radius                                                         
   POMASS =   78.960; ZVAL   =    6.000    mass and valenz                                          
   RCORE  =    2.100    outmost cutoff radius                                                       
   RWIGS  =    2.200; RWIGS  =    1.164    wigner-seitz radius (au A)                               
   ENMAX  =  211.555; ENMIN  =  158.666 eV                                                          
   ICORE  =        3    local potential                                                             
   LCOR   =        T    correct aug charges                                                         
   LPAW   =        T    paw PP                                                                      
   EAUG   =  446.842                                                                                
   DEXC   =    0.000                                                                                
   RMAX   =    2.147    core radius for proj-oper                                                   
   RAUG   =    1.300    factor for augmentation sphere                                              
   RDEP   =    2.177    radius for radial grids                                                     
   RDEPT  =    1.928    core radius for aug-charge                                                  
                                                                                                    
   Atomic configuration                                                                             
   10 entries                                                                                       
     n  l   j            E        occ.                                                              
     1  0  0.50    -12503.4787   2.0000                                                             
     2  0  0.50     -1606.9547   2.0000                                                             
     2  1  1.50     -1413.3140   6.0000                                                             
     3  0  0.50      -213.4885   2.0000                                                             
     3  1  1.50      -152.9538   6.0000                                                             
     3  2  2.50       -53.1221  10.0000                                                             
     4  0  0.50       -17.2865   2.0000                                                             
     4  1  0.50        -6.5110   4.0000                                                             
     4  2  2.50        -6.8029   0.0000                                                             
     4  3  2.50        -6.8029   0.0000                                                             
   Description                                                                                      
     l       E           TYP  RCUT    TYP  RCUT                                                     
     0    -17.2865377     23  2.100                                                                 
     0    -15.3094411     23  2.100                                                                 
     1     -6.5110275     23  2.100                                                                 
     1     -0.0695192     23  2.100                                                                 
     2     -6.8029130     23  2.100                                                                 
     3     -1.3605826      7  2.100                                                                 
  local pseudopotential read in
  partial core-charges read in
  partial kinetic energy density read in
  atomic valenz-charges read in
  non local Contribution for L=            0  read in
    real space projection operators read in
  non local Contribution for L=            0  read in
    real space projection operators read in
  non local Contribution for L=            1  read in
    real space projection operators read in
  non local Contribution for L=            1  read in
    real space projection operators read in
  non local Contribution for L=            2  read in
    real space projection operators read in
    PAW grid and wavefunctions read in
 
   number of l-projection  operators is LMAX  =            5
   number of lm-projection operators is LMMAX =           13
 
 -----------------------------------------------------------------------------
|                                                                             |
|               ----> ADVICE to this user running VASP <----                  |
|                                                                             |
|     You have a (more or less) 'large supercell' and for larger cells it     |
|     might be more efficient to use real-space projection operators.         |
|     Therefore, try LREAL= Auto in the INCAR file.                           |
|     Mind: For very accurate calculation, you might also keep the            |
|     reciprocal projection scheme (i.e. LREAL=.FALSE.).                      |
|                                                                             |
 -----------------------------------------------------------------------------

  PAW_PBE Ge 05Jan2001                  :
 energy of atom  1       EATOM= -104.9960
 kinetic energy error for atom=    0.0002 (will be added to EATOM!!)
  PAW_PBE Se 06Sep2000                  :
 energy of atom  2       EATOM= -257.1286
 kinetic energy error for atom=    0.0007 (will be added to EATOM!!)
 
 
 POSCAR: Ge Se
  positions in cartesian coordinates
  No initial velocities read in
 exchange correlation table for  LEXCH =        8
   RHO(1)=    0.500       N(1)  =     2000
   RHO(2)=  100.500       N(2)  =     4000
 


--------------------------------------------------------------------------------------------------------


 ion  position               nearest neighbor table
   1  0.096  0.008  0.137-  45 2.51  67 2.65  54 2.66
   2  0.261  0.858  0.365-  67 2.49  48 2.77  50 2.84
   3  0.572  0.218  0.390-  68 2.52  56 2.65  49 2.71
   4  0.600  0.512  0.365-  72 2.51  56 2.55  69 2.64
   5  0.574  0.859  0.366-  70 2.54  44 2.60  48 2.62
   6  0.928  0.177  0.346-  46 2.58  55 2.59  45 2.64
   7  0.903  0.541  0.392-  72 2.69  71 2.70  47 2.74
   8  0.897  0.884  0.399-  53 2.57  45 2.58  44 2.61
   9  0.073  0.142  0.630-  37 2.52  57 2.58  51 2.63
  10  0.094  0.513  0.618-  39 2.65  38 2.67  58 2.72
  11  0.066  0.827  0.633-  39 2.63  59 2.77
  12  0.394  0.143  0.623-  40 2.55  60 2.60  51 2.74
  13  0.418  0.466  0.617-  38 2.54  41 2.57  61 2.70
  14  0.430  0.836  0.609-  42 2.58  40 2.73  62 2.76
  15  0.758  0.179  0.622-  43 2.55  63 2.68  37 2.79
  16  0.732  0.481  0.635-  64 2.50  43 2.68  41 2.70
  17  0.245  0.552  0.372-  66 2.53  50 2.61  47 2.73
  18  0.220  0.206  0.374-  54 2.52  46 2.57  49 2.83
  19  0.737  0.821  0.634-  52 2.46  65 2.60  42 2.68
  20  0.895  0.664  0.855-  52 2.47  58 2.79
  21  0.913  0.979  0.876-  37 2.50  59 2.58  65 2.67
  22  0.071  0.388  0.124-  46 2.49  71 2.56  66 2.58
  23  0.047  0.721  0.146-  47 2.57  53 2.70  67 2.72
  24  0.418  0.046  0.131-  48 2.51  54 2.60  68 2.67
  25  0.382  0.386  0.133-  66 2.53  49 2.58  69 2.64
  26  0.716  0.051  0.134-  44 2.70  55 2.72  68 2.75
  27  0.766  0.363  0.129-  56 2.50  55 2.60  71 2.66
  28  0.415  0.676  0.137-  50 2.51  70 2.66  69 2.70
  29  0.248  0.308  0.868-  57 2.55  60 2.67  38 2.68
  30  0.259  0.685  0.882-  62 2.49  61 2.69  39 2.83
  31  0.244  0.979  0.877-  62 2.56  51 2.57  59 2.85
  32  0.568  0.314  0.863-  41 2.50  63 2.52
  33  0.575  0.659  0.865-  42 2.58  64 2.69  61 2.74
  34  0.583  0.002  0.868-  40 2.56  63 2.63  65 2.83
  35  0.922  0.355  0.872-  58 2.52  43 2.66  57 2.80
  36  0.744  0.714  0.118-  70 2.62  72 2.66  53 2.71
  37  0.912  0.021  0.655-  21 2.50   9 2.52  15 2.79
  38  0.244  0.361  0.634-  13 2.54  10 2.67  29 2.68
  39  0.220  0.683  0.631-  11 2.63  10 2.65  30 2.83
  40  0.552  0.015  0.640-  12 2.55  34 2.56  14 2.73
  41  0.574  0.333  0.639-  32 2.50  13 2.57  16 2.70
  42  0.571  0.685  0.634-  33 2.58  14 2.58  19 2.68
  43  0.889  0.335  0.636-  15 2.55  35 2.66  16 2.68
  44  0.726  0.002  0.371-   5 2.60   8 2.61  26 2.70
  45  0.057  0.009  0.359-   1 2.51   8 2.58   6 2.64
  46  0.062  0.334  0.340-  22 2.49  18 2.57   6 2.58
  47  0.069  0.682  0.373-  23 2.57  17 2.73   7 2.74
  48  0.425  0.007  0.353-  24 2.51   5 2.62   2 2.77
  49  0.398  0.345  0.361-  25 2.58   3 2.71  18 2.83
  50  0.407  0.685  0.363-  28 2.51  17 2.61   2 2.84
  51  0.228  0.000  0.648-  31 2.57   9 2.63  12 2.74
  52  0.874  0.679  0.634-  19 2.46  20 2.47
  53  0.890  0.869  0.168-   8 2.57  23 2.70  36 2.71
  54  0.244  0.160  0.154-  18 2.52  24 2.60   1 2.66
  55  0.882  0.191  0.119-   6 2.59  27 2.60  26 2.72
  56  0.730  0.355  0.351-  27 2.50   4 2.55   3 2.65
  57  0.078  0.195  0.855-  29 2.55   9 2.58  35 2.80
  58  0.054  0.507  0.859-  35 2.52  10 2.72  20 2.79
  59  0.065  0.838  0.883-  21 2.58  11 2.77  31 2.85
  60  0.395  0.153  0.858-  12 2.60  29 2.67
  61  0.401  0.526  0.850-  30 2.69  13 2.70  33 2.74
  62  0.388  0.835  0.854-  30 2.49  31 2.56  14 2.76
  63  0.710  0.170  0.858-  32 2.52  34 2.63  15 2.68
  64  0.712  0.492  0.859-  16 2.50  33 2.69
  65  0.747  0.845  0.867-  19 2.60  21 2.67  34 2.83
  66  0.230  0.519  0.148-  17 2.53  25 2.53  22 2.58
  67  0.228  0.843  0.144-   2 2.49   1 2.65  23 2.72
  68  0.560  0.204  0.163-   3 2.52  24 2.67  26 2.75
  69  0.553  0.510  0.133-  25 2.64   4 2.64  28 2.70
  70  0.567  0.826  0.140-   5 2.54  36 2.62  28 2.66
  71  0.913  0.517  0.150-  22 2.56  27 2.66   7 2.70
  72  0.730  0.664  0.351-   4 2.51  36 2.66   7 2.69
 

IMPORTANT INFORMATION: All symmetrisations will be switched off!
NOSYMM: (Re-)initialisation of all symmetry stuff for point group C_1.


----------------------------------------------------------------------------------------

                                     Primitive cell                                     

  volume of cell :    1728.9599

  direct lattice vectors                    reciprocal lattice vectors
    12.453691036  0.000004388 -0.000002668     0.080297479 -0.000000028  0.000000022
     0.000004414 12.529244580  0.000002553    -0.000000028  0.079813272 -0.000000021
    -0.000003056  0.000002906 11.080566347     0.000000019 -0.000000018  0.090248095

  length of vectors
    12.453691036 12.529244580 11.080566347     0.080297479  0.079813272  0.090248095

  position of ions in fractional coordinates (direct lattice)
     0.095632161  0.007948122  0.137026195
     0.261282818  0.858002585  0.364864827
     0.571718428  0.218168091  0.389543242
     0.599969455  0.511750118  0.365035873
     0.573944355  0.859441631  0.366188732
     0.928217912  0.176555920  0.345805659
     0.902620435  0.540555343  0.392082971
     0.896694074  0.883858950  0.399170811
     0.072736197  0.141863738  0.629828006
     0.093701889  0.512861005  0.618411940
     0.065911628  0.826510709  0.632956076
     0.393833635  0.142973617  0.623374568
     0.417979485  0.465579467  0.616638886
     0.430352249  0.835567561  0.609250240
     0.757755702  0.179194661  0.622495110
     0.731874676  0.481070837  0.635251803
     0.245370371  0.552427498  0.371662088
     0.219852493  0.205822386  0.374145441
     0.737403025  0.821132422  0.633913088
     0.895234891  0.663600523  0.855060308
     0.913148916  0.978783704  0.875597916
     0.070615663  0.388366254  0.124335501
     0.047490935  0.721489534  0.145979133
     0.418324064  0.046123250  0.130702854
     0.382037568  0.385707373  0.132654014
     0.715958996  0.050701870  0.134093054
     0.766261061  0.363283612  0.129340841
     0.415492545  0.676453079  0.136701916
     0.248111153  0.307884500  0.868081904
     0.259318648  0.684887835  0.882473784
     0.244132652  0.978944532  0.877391928
     0.568367582  0.313777968  0.863328214
     0.575193188  0.659105121  0.864886316
     0.583423298  0.002108419  0.867761134
     0.921773056  0.354868275  0.872397787
     0.743841279  0.714485297  0.118435535
     0.912432074  0.020754164  0.655023969
     0.244139865  0.361377956  0.634301244
     0.220329975  0.682831353  0.631302458
     0.552404621  0.014833551  0.639900928
     0.573994479  0.333249206  0.638597190
     0.570699519  0.685328460  0.634345696
     0.889015412  0.334763617  0.636465642
     0.725787059  0.001775603  0.370776180
     0.057279454  0.009400625  0.359220042
     0.061811242  0.334378658  0.340091465
     0.069103600  0.682204349  0.372718801
     0.425342757  0.006953686  0.353045949
     0.397825141  0.345269274  0.360672575
     0.407447620  0.684505125  0.362740601
     0.228032505  0.000379519  0.647635935
     0.873573833  0.678847899  0.633758168
     0.890359706  0.868664363  0.167902005
     0.244445515  0.159771345  0.154130204
     0.882487473  0.190828509  0.118632574
     0.730217620  0.354781593  0.351472371
     0.078441545  0.195227631  0.854816842
     0.053686478  0.506715470  0.859225066
     0.064565191  0.838159249  0.882824713
     0.394891804  0.152728052  0.857880663
     0.401186310  0.526076181  0.849548328
     0.388228961  0.834615235  0.853985006
     0.709880514  0.169686581  0.858007208
     0.711901593  0.492469203  0.859270820
     0.746728037  0.844854323  0.866976197
     0.229815888  0.518514107  0.147674302
     0.228225921  0.843120592  0.143671408
     0.559798434  0.204087237  0.163198035
     0.553046573  0.509967398  0.132689062
     0.567298285  0.825944156  0.140258838
     0.912665770  0.517318695  0.149842856
     0.730271856  0.664261276  0.350966960

  ion indices of the primitive-cell ions
   primitive index   ion index
                 1           1
                 2           2
                 3           3
                 4           4
                 5           5
                 6           6
                 7           7
                 8           8
                 9           9
                10          10
                11          11
                12          12
                13          13
                14          14
                15          15
                16          16
                17          17
                18          18
                19          19
                20          20
                21          21
                22          22
                23          23
                24          24
                25          25
                26          26
                27          27
                28          28
                29          29
                30          30
                31          31
                32          32
                33          33
                34          34
                35          35
                36          36
                37          37
                38          38
                39          39
                40          40
                41          41
                42          42
                43          43
                44          44
                45          45
                46          46
                47          47
                48          48
                49          49
                50          50
                51          51
                52          52
                53          53
                54          54
                55          55
                56          56
                57          57
                58          58
                59          59
                60          60
                61          61
                62          62
                63          63
                64          64
                65          65
                66          66
                67          67
                68          68
                69          69
                70          70
                71          71
                72          72

----------------------------------------------------------------------------------------

 
 
 KPOINTS: KPOINTS created by Atomic Simulation Env

Automatic generation of k-mesh.
 Grid dimensions read from file:
 generate k-points for:    2    2    2

 Generating k-lattice:

  Cartesian coordinates                     Fractional coordinates (reciprocal lattice)
     0.040148740 -0.000000014  0.000000011     0.500000000 -0.000000000  0.000000000
    -0.000000014  0.039906636 -0.000000010     0.000000000  0.500000000 -0.000000000
     0.000000010 -0.000000009  0.045124047    -0.000000000  0.000000000  0.500000000

  Length of vectors
     0.040148740  0.039906636  0.045124047

  Shift w.r.t. Gamma in fractional coordinates (k-lattice)
     0.000000000  0.000000000  0.000000000

 
 Subroutine IBZKPT returns following result:
 ===========================================
 
 Found      8 irreducible k-points:
 
 Following reciprocal coordinates:
            Coordinates               Weight
  0.000000  0.000000  0.000000      1.000000
  0.500000  0.000000  0.000000      1.000000
  0.000000  0.500000  0.000000      1.000000
  0.500000  0.500000  0.000000      1.000000
  0.000000  0.000000  0.500000      1.000000
  0.500000  0.000000  0.500000      1.000000
  0.000000  0.500000  0.500000      1.000000
  0.500000  0.500000  0.500000      1.000000
 
 Following cartesian coordinates:
            Coordinates               Weight
  0.000000  0.000000  0.000000      1.000000
  0.040149 -0.000000  0.000000      1.000000
 -0.000000  0.039907 -0.000000      1.000000
  0.040149  0.039907  0.000000      1.000000
  0.000000 -0.000000  0.045124      1.000000
  0.040149 -0.000000  0.045124      1.000000
 -0.000000  0.039907  0.045124      1.000000
  0.040149  0.039907  0.045124      1.000000
 
 -----------------------------------------------------------------------------
|                                                                             |
|           W    W    AA    RRRRR   N    N  II  N    N   GGGG   !!!           |
|           W    W   A  A   R    R  NN   N  II  NN   N  G    G  !!!           |
|           W    W  A    A  R    R  N N  N  II  N N  N  G       !!!           |
|           W WW W  AAAAAA  RRRRR   N  N N  II  N  N N  G  GGG   !            |
|           WW  WW  A    A  R   R   N   NN  II  N   NN  G    G                |
|           W    W  A    A  R    R  N    N  II  N    N   GGGG   !!!           |
|                                                                             |
|     The number of bands has been changed from the values supplied in        |
|     the INCAR file. This is a result of running the parallel version.       |
|     The orbitals not found in the WAVECAR file will be initialized with     |
|     random numbers, which is usually adequate. For correlated               |
|     calculations, however, you should redo the groundstate calculation.     |
|     I found NBANDS = 220. Now, NBANDS = 224.                                |
|                                                                             |
 -----------------------------------------------------------------------------



--------------------------------------------------------------------------------------------------------




 Dimension of arrays:
   k-points           NKPTS =      8   k-points in BZ     NKDIM =      8   number of bands    NBANDS=    224
   number of dos      NEDOS =    301   number of ions     NIONS =     72
   non local maximal  LDIM  =      5   non local SUM 2l+1 LMDIM =     13
   total plane-waves  NPLWV = 774144
   max r-space proj   IRMAX =      1   max aug-charges    IRDMAX=  24532
   dimension x,y,z NGX =    96 NGY =   96 NGZ =   84
   dimension x,y,z NGXF=   192 NGYF=  192 NGZF=  168
   support grid    NGXF=   192 NGYF=  192 NGZF=  168
   ions per type =              36  36
   NGX,Y,Z   is equivalent  to a cutoff of  12.82, 12.74, 12.60 a.u.
   NGXF,Y,Z  is equivalent  to a cutoff of  25.63, 25.48, 25.21 a.u.

 SYSTEM =  01_AOPT                                 
 POSCAR =  Ge Se                                   

 Startparameter for this run:
   NWRITE =      2    write-flag & timer
   PREC   = accura    normal or accurate (medium, high low for compatibility)
   ISTART =      0    job   : 0-new  1-cont  2-samecut
   ICHARG =      2    charge: 1-file 2-atom 10-const
   ISPIN  =      2    spin polarized calculation?
   LNONCOLLINEAR =      F non collinear calculations
   LSORBIT =      F    spin-orbit coupling
   INIWAV =      1    electr: 0-lowe 1-rand  2-diag
   LASPH  =      T    aspherical Exc in radial PAW
 Electronic Relaxation 1
   ENCUT  =  520.0 eV  38.22 Ry    6.18 a.u.  23.16 23.30 20.60*2*pi/ulx,y,z
   ENINI  =  520.0     initial cutoff
   ENAUG  =  446.8 eV  augmentation charge cutoff
   NELM   =    100;   NELMIN=  5; NELMDL=  0     # of ELM steps 
   EDIFF  = 0.1E-05   stopping-criterion for ELM
   LREAL  =      F    real-space projection
   NLSPLINE    = F    spline interpolate recip. space projectors
   LCOMPAT=      F    compatible to vasp.4.4
   GGA_COMPAT  = T    GGA compatible to vasp.4.4-vasp.4.6
   LMAXPAW     = -100 max onsite density
   LMAXMIX     =    2 max onsite mixed and CHGCAR
   VOSKOWN=      0    Vosko Wilk Nusair interpolation
   ROPT   =    0.00000   0.00000
 Ionic relaxation
   EDIFFG = 0.1E-04   stopping-criterion for IOM
   NSW    =      0    number of steps for IOM
   NBLOCK =      1;   KBLOCK =      1    inner block; outer block 
   IBRION =     -1    ionic relax: 0-MD 1-quasi-New 2-CG
   NFREE  =      0    steps in history (QN), initial steepest desc. (CG)
   ISIF   =      2    stress and relaxation
   IWAVPR =     10    prediction:  0-non 1-charg 2-wave 3-comb
   ISYM   =     -1    0-nonsym 1-usesym 2-fastsym
   LCORR  =      T    Harris-Foulkes like correction to forces

   POTIM  = 0.5000    time-step for ionic-motion
   TEIN   =    0.0    initial temperature
   TEBEG  =    0.0;   TEEND  =   0.0 temperature during run
   SMASS  =  -3.00    Nose mass-parameter (am)
   estimated Nose-frequenzy (Omega)   =  0.10E-29 period in steps = 0.13E+47 mass=  -0.354E-26a.u.
   SCALEE = 1.0000    scale energy and forces
   NPACO  =    256;   APACO  = 10.0  distance and # of slots for P.C.
   PSTRESS=    0.0 pullay stress

  Mass of Ions in am
   POMASS =  72.61 78.96
  Ionic Valenz
   ZVAL   =   4.00  6.00
  Atomic Wigner-Seitz radii
   RWIGS  =  -1.00 -1.00
  virtual crystal weights 
   VCA    =   1.00  1.00
   NELECT =     360.0000    total number of electrons
   NUPDOWN=      -1.0000    fix difference up-down

 DOS related values:
   EMIN   =  10.00;   EMAX   =-10.00  energy-range for DOS
   EFERMI =   0.00;   METHOD = LEGACY      
   ISMEAR =     0;   SIGMA  =   0.05  broadening in eV -4-tet -1-fermi 0-gaus

 Electronic relaxation 2 (details)
   IALGO  =     38    algorithm
   LDIAG  =      T    sub-space diagonalisation (order eigenvalues)
   LSUBROT=      F    optimize rotation matrix (better conditioning)
   TURBO    =      0    0=normal 1=particle mesh
   IRESTART =      0    0=no restart 2=restart with 2 vectors
   NREBOOT  =      0    no. of reboots
   NMIN     =      0    reboot dimension
   EREF     =   0.00    reference energy to select bands
   IMIX   =      4    mixing-type and parameters
     AMIX     =   0.40;   BMIX     =  1.00
     AMIX_MAG =   1.60;   BMIX_MAG =  1.00
     AMIN     =   0.10
     WC   =   100.;   INIMIX=   1;  MIXPRE=   1;  MAXMIX= -45

 Intra band minimization:
   WEIMIN = 0.0000     energy-eigenvalue tresh-hold
   EBREAK =  0.11E-08  absolut break condition
   DEPER  =   0.30     relativ break condition  

   TIME   =   0.40     timestep for ELM

  volume/ion in A,a.u.               =      24.01       162.05
  Fermi-wavevector in a.u.,A,eV,Ry     =   0.970318  1.833635 12.810113  0.941517
  Thomas-Fermi vector in A             =   2.100443
 
 Write flags
   LWAVE        =      F    write WAVECAR
   LDOWNSAMPLE  =      F    k-point downsampling of WAVECAR
   LCHARG       =      F    write CHGCAR
   LVTOT        =      F    write LOCPOT, total local potential
   LVHAR        =      F    write LOCPOT, Hartree potential only
   LELF         =      F    write electronic localiz. function (ELF)
   LORBIT       =     11    0 simple, 1 ext, 2 COOP (PROOUT), +10 PAW based schemes


 Dipole corrections
   LMONO  =      F    monopole corrections only (constant potential shift)
   LDIPOL =      F    correct potential (dipole corrections)
   IDIPOL =      0    1-x, 2-y, 3-z, 4-all directions 
   EPSILON=  1.0000000 bulk dielectric constant

 Exchange correlation treatment:
   GGA     =    PE    GGA type
   LEXCH   =     8    internal setting for exchange type
   LIBXC   =     F    Libxc                    
   VOSKOWN =     0    Vosko Wilk Nusair interpolation
   LHFCALC =     F    Hartree Fock is set to
   LHFONE  =     F    Hartree Fock one center treatment
   AEXX    =    0.0000 exact exchange contribution

 Linear response parameters
   LEPSILON=     F    determine dielectric tensor
   LRPA    =     F    only Hartree local field effects (RPA)
   LNABLA  =     F    use nabla operator in PAW spheres
   LVEL    =     F    velocity operator in full k-point grid
   CSHIFT  =0.1000    complex shift for real part using Kramers Kronig
   OMEGAMAX=  -1.0    maximum frequency
   DEG_THRESHOLD= 0.2000000E-02 threshold for treating states as degnerate
   RTIME   =   -0.100 relaxation time in fs
  (WPLASMAI=    0.000 imaginary part of plasma frequency in eV, 0.658/RTIME)
   DFIELD  = 0.0000000 0.0000000 0.0000000 field for delta impulse in time
 
  Optional k-point grid parameters
   LKPOINTS_OPT  =     F    use optional k-point grid
   KPOINTS_OPT_MODE=     1    mode for optional k-point grid
 
 Orbital magnetization related:
   ORBITALMAG=     F  switch on orbital magnetization
   LCHIMAG   =     F  perturbation theory with respect to B field
   DQ        =  0.001000  dq finite difference perturbation B field
   LLRAUG    =     F  two centre corrections for induced B field
   LBONE     =     F  B-component reconstruction in AE one-centre
   LVGVCALC  =     T  calculate vGv susceptibility
   LVGVAPPL  =     F  apply vGv susceptibility instead of pGv for G=0

 Random number generation:
   RANDOM_GENERATOR = DEFAULT
   PCG_SEED         = not used


--------------------------------------------------------------------------------------------------------


 Static calculation
 charge density and potential will be updated during run
 spin polarized calculation
 Variant of blocked Davidson
 Davidson routine will perform the subspace rotation
 perform sub-space diagonalisation
    after iterative eigenvector-optimisation
 modified Broyden-mixing scheme, WC =      100.0
 initial mixing is a Kerker type mixing with AMIX =  0.4000 and BMIX =      1.0000
 Hartree-type preconditioning will be used
 using additional bands            44
 reciprocal scheme for non local part
 use partial core corrections
 calculate Harris-corrections to forces 
   (improved forces if not selfconsistent)
 use gradient corrections 
 use of overlap-Matrix (Vanderbilt PP)
 Gauss-broadening in eV      SIGMA  =   0.05


--------------------------------------------------------------------------------------------------------


  energy-cutoff  :      520.00
  volume of cell :     1728.96
      direct lattice vectors                 reciprocal lattice vectors
    12.453691036  0.000004388 -0.000002668     0.080297479 -0.000000028  0.000000022
     0.000004414 12.529244580  0.000002553    -0.000000028  0.079813272 -0.000000021
    -0.000003056  0.000002906 11.080566347     0.000000019 -0.000000018  0.090248095

  length of vectors
    12.453691036 12.529244580 11.080566347     0.080297479  0.079813272  0.090248095


 
 k-points in units of 2pi/SCALE and weight: KPOINTS created by Atomic Simulation Env
   0.00000000  0.00000000  0.00000000       0.125
   0.04014874 -0.00000001  0.00000001       0.125
  -0.00000001  0.03990664 -0.00000001       0.125
   0.04014873  0.03990662  0.00000000       0.125
   0.00000001 -0.00000001  0.04512405       0.125
   0.04014875 -0.00000002  0.04512406       0.125
  -0.00000000  0.03990663  0.04512404       0.125
   0.04014874  0.03990661  0.04512405       0.125
 
 k-points in reciprocal lattice and weights: KPOINTS created by Atomic Simulation Env
   0.00000000  0.00000000  0.00000000       0.125
   0.50000000  0.00000000  0.00000000       0.125
   0.00000000  0.50000000  0.00000000       0.125
   0.50000000  0.50000000  0.00000000       0.125
   0.00000000  0.00000000  0.50000000       0.125
   0.50000000  0.00000000  0.50000000       0.125
   0.00000000  0.50000000  0.50000000       0.125
   0.50000000  0.50000000  0.50000000       0.125
 
 position of ions in fractional coordinates (direct lattice) 
   0.09563216  0.00794812  0.13702619
   0.26128282  0.85800259  0.36486483
   0.57171843  0.21816809  0.38954324
   0.59996945  0.51175012  0.36503587
   0.57394436  0.85944163  0.36618873
   0.92821791  0.17655592  0.34580566
   0.90262043  0.54055534  0.39208297
   0.89669407  0.88385895  0.39917081
   0.07273620  0.14186374  0.62982801
   0.09370189  0.51286100  0.61841194
   0.06591163  0.82651071  0.63295608
   0.39383364  0.14297362  0.62337457
   0.41797949  0.46557947  0.61663889
   0.43035225  0.83556756  0.60925024
   0.75775570  0.17919466  0.62249511
   0.73187468  0.48107084  0.63525180
   0.24537037  0.55242750  0.37166209
   0.21985249  0.20582239  0.37414544
   0.73740303  0.82113242  0.63391309
   0.89523489  0.66360052  0.85506031
   0.91314892  0.97878370  0.87559792
   0.07061566  0.38836625  0.12433550
   0.04749094  0.72148953  0.14597913
   0.41832406  0.04612325  0.13070285
   0.38203757  0.38570737  0.13265401
   0.71595900  0.05070187  0.13409305
   0.76626106  0.36328361  0.12934084
   0.41549255  0.67645308  0.13670192
   0.24811115  0.30788450  0.86808190
   0.25931865  0.68488783  0.88247378
   0.24413265  0.97894453  0.87739193
   0.56836758  0.31377797  0.86332821
   0.57519319  0.65910512  0.86488632
   0.58342330  0.00210842  0.86776113
   0.92177306  0.35486828  0.87239779
   0.74384128  0.71448530  0.11843553
   0.91243207  0.02075416  0.65502397
   0.24413987  0.36137796  0.63430124
   0.22032997  0.68283135  0.63130246
   0.55240462  0.01483355  0.63990093
   0.57399448  0.33324921  0.63859719
   0.57069952  0.68532846  0.63434570
   0.88901541  0.33476362  0.63646564
   0.72578706  0.00177560  0.37077618
   0.05727945  0.00940063  0.35922004
   0.06181124  0.33437866  0.34009146
   0.06910360  0.68220435  0.37271880
   0.42534276  0.00695369  0.35304595
   0.39782514  0.34526927  0.36067257
   0.40744762  0.68450513  0.36274060
   0.22803250  0.00037952  0.64763594
   0.87357383  0.67884790  0.63375817
   0.89035971  0.86866436  0.16790201
   0.24444552  0.15977134  0.15413020
   0.88248747  0.19082851  0.11863257
   0.73021762  0.35478159  0.35147237
   0.07844154  0.19522763  0.85481684
   0.05368648  0.50671547  0.85922507
   0.06456519  0.83815925  0.88282471
   0.39489180  0.15272805  0.85788066
   0.40118631  0.52607618  0.84954833
   0.38822896  0.83461524  0.85398501
   0.70988051  0.16968658  0.85800721
   0.71190159  0.49246920  0.85927082
   0.74672804  0.84485432  0.86697620
   0.22981589  0.51851411  0.14767430
   0.22822592  0.84312059  0.14367141
   0.55979843  0.20408724  0.16319804
   0.55304657  0.50996740  0.13268906
   0.56729828  0.82594416  0.14025884
   0.91266577  0.51731869  0.14984286
   0.73027186  0.66426128  0.35096696
 
 position of ions in cartesian coordinates  (Angst):
   1.19097301  0.09958478  1.51832760
   3.25393817 10.75012645  4.04291041
   7.12000444  2.73348502  4.31635877
   7.47183536  6.41184608  4.04480392
   7.14772835 10.76815798  4.05757920
  11.55973881  2.21211738  3.83172052
  11.24095720  6.77275520  4.34450035
  11.16715363 11.07409006  4.42303852
   0.90583282  1.77744762  6.97885118
   1.16693475  6.42576317  6.85235559
   0.82084477 10.35555695  7.01351373
   4.90468114  1.79135496  6.90734258
   5.20538754  5.83336264  6.83270816
   5.35947577 10.46903399  6.75083870
   9.43685428  2.24517887  6.89759680
   9.11454128  6.02745923  7.03894903
   3.05576809  6.92150139  4.11822718
   2.73797478  2.57880106  4.14574332
   9.18339114 10.28817402  7.02411616
  11.14897905  8.31441967  9.47455178
  11.37207612 12.26342697  9.70212086
   0.87942698  4.86593645  1.37770857
   0.59144018  9.03971946  1.61753318
   5.20967845  0.57789169  1.44826065
   4.75777914  4.83262408  1.46988157
   8.91633195  0.63525966  1.48582520
   9.54277971  4.55167296  1.43316865
   5.17441836  8.47544830  1.51473526
   3.08989835  3.85756381  9.61883926
   3.22947465  8.58113089  9.77831037
   3.04035426 12.26543910  9.72200131
   7.07827301  3.93140591  9.56616483
   7.16327851  8.25809430  9.58343036
   7.26577085  0.02642198  9.61528327
  11.47947575  4.44623800  9.66666001
   9.26357226  8.95196465  1.31233264
  11.36314523  0.26003991  7.25803417
   3.04044211  4.52779571  7.02841729
   2.74392252  8.55536383  6.99518993
   6.87947458  0.18585747  7.09046325
   7.14834941  4.17536519  7.07601785
   7.10731657  8.58665224  7.02890980
  11.07152281  4.19434098  7.05239826
   9.03872666  0.02225123  4.10840813
   0.71333956  0.11778403  3.98036138
   0.76977855  4.18951325  3.76840673
   0.86059675  8.54750652  4.12993696
   5.29708623  0.08712732  3.91194795
   4.95439181  4.32596597  3.99645622
   5.07422869  8.57633497  4.01937196
   2.83984438  0.00475797  7.17617234
  10.87921968  8.50545703  7.02239883
  11.08826801 10.88371265  1.86044915
   3.04424916  2.00181578  1.70784970
  10.99022681  2.39094128  1.31451424
   9.09390512  4.44514958  3.89451189
   0.97688501  2.44605757  9.47185502
   0.66859442  6.34876479  9.52070150
   0.80407594 10.50150508  9.78219978
   4.91785857  1.91357135  9.50580295
   4.99625008  6.59134137  9.41347689
   4.83488460 10.45710260  9.46263862
   8.84063072  2.12605029  9.50720434
   8.86580204  6.17027271  9.52120669
   9.29952134 10.58539224  9.60658744
   2.86205790  6.49659151  1.63631561
   2.84225839 10.56366553  1.59196211
   6.97155714  2.55706184  1.80832568
   6.88747300  6.38950906  1.47026978
   7.06496078 10.34845924  1.55414796
  11.36605934  6.48161689  1.66034260
   9.09458192  8.32269621  3.88891243
 


--------------------------------------------------------------------------------------------------------


 k-point   1 :   0.0000 0.0000 0.0000  plane waves:   46509
 k-point   2 :   0.5000 0.0000 0.0000  plane waves:   46574
 k-point   3 :   0.0000 0.5000 0.0000  plane waves:   46542
 k-point   4 :   0.5000 0.5000 0.0000  plane waves:   46560
 k-point   5 :   0.0000 0.0000 0.5000  plane waves:   46654
 k-point   6 :   0.5000 0.0000 0.5000  plane waves:   46516
 k-point   7 :   0.0000 0.5000 0.5000  plane waves:   46572
 k-point   8 :   0.5000 0.5000 0.5000  plane waves:   46520

 maximum and minimum number of plane-waves per node :      5851     5782

 maximum number of plane-waves:     46654
 maximum index in each direction: 
   IXMAX=   23   IYMAX=   23   IZMAX=   20
   IXMIN=  -23   IYMIN=  -23   IZMIN=  -21


 parallel 3D FFT for wavefunctions:
    minimum data exchange during FFTs selected (reduces bandwidth)
 parallel 3D FFT for charge:
    minimum data exchange during FFTs selected (reduces bandwidth)


 total amount of memory used by VASP MPI-rank0   111004. kBytes
=======================================================================

   base      :      30000. kBytes
   nonl-proj :      16422. kBytes
   fftplans  :       6180. kBytes
   grid      :      15593. kBytes
   one-center:        146. kBytes
   wavefun   :      42663. kBytes
 
     INWAV:  cpu time      0.0000: real time      0.0002
 Broyden mixing: mesh for mixing (old mesh)
   NGX = 47   NGY = 47   NGZ = 41
  (NGX  =192   NGY  =192   NGZ  =168)
  gives a total of  90569 points

 initial charge density was supplied:
 charge density of overlapping atoms calculated
 number of electron     360.0000000 magnetization      72.0000000
 keeping initial charge density in first step


--------------------------------------------------------------------------------------------------------


 Maximum index for augmentation-charges           731 (set IRDMAX)


--------------------------------------------------------------------------------------------------------


 First call to EWALD:  gamma=   0.148
 Maximum number of real-space cells 3x 3x 3
 Maximum number of reciprocal cells 3x 3x 3

    FEWALD:  cpu time      0.0084: real time      0.0084


--------------------------------------- Ionic step        1  -------------------------------------------




--------------------------------------- Iteration      1(   1)  ---------------------------------------


    POTLOK:  cpu time      0.1384: real time      0.1394
    SETDIJ:  cpu time      0.6044: real time      0.6060
     EDDAV:  cpu time      8.6374: real time      8.6780
       DOS:  cpu time      0.0015: real time      0.0015
    --------------------------------------------
      LOOP:  cpu time      9.3817: real time      9.4249

 eigenvalue-minimisations  :  7168
 total energy-change (2. order) : 0.1817588E+04  (-0.1417833E+05)
 number of electron     360.0000000 magnetization      72.0000000
 augmentation part      360.0000000 magnetization      72.0000000

 Free energy of the ion-electron system (eV)
  ---------------------------------------------------
  alpha Z        PSCENC =       793.82988754
  Ewald energy   TEWEN  =    -12828.63574790
  -Hartree energ DENC   =     -1131.55681219
  -exchange      EXHF   =         0.00000000
  -V(xc)+E(xc)   XCENC  =      -293.95212307
  PAW double counting   =     10738.42099860    -9719.93139476
  entropy T*S    EENTRO =        -0.02606498
  eigenvalues    EBANDS =      1222.98810942
  atomic energy  EATOM  =     13036.45147835
  Solvation  Ediel_sol  =         0.00000000
  ---------------------------------------------------
  free energy    TOTEN  =      1817.58833101 eV

  energy without entropy =     1817.61439599  energy(sigma->0) =     1817.60136350


--------------------------------------------------------------------------------------------------------




--------------------------------------- Iteration      1(   2)  ---------------------------------------


     EDDAV:  cpu time      9.7768: real time      9.8235
       DOS:  cpu time      0.0014: real time      0.0014
    --------------------------------------------
      LOOP:  cpu time      9.7781: real time      9.8249

 eigenvalue-minimisations  :  8504
 total energy-change (2. order) :-0.1882555E+04  (-0.1807457E+04)
 number of electron     360.0000000 magnetization      72.0000000
 augmentation part      360.0000000 magnetization      72.0000000

 Free energy of the ion-electron system (eV)
  ---------------------------------------------------
  alpha Z        PSCENC =       793.82988754
  Ewald energy   TEWEN  =    -12828.63574790
  -Hartree energ DENC   =     -1131.55681219
  -exchange      EXHF   =         0.00000000
  -V(xc)+E(xc)   XCENC  =      -293.95212307
  PAW double counting   =     10738.42099860    -9719.93139476
  entropy T*S    EENTRO =        -0.01277696
  eigenvalues    EBANDS =      -659.58055912
  atomic energy  EATOM  =     13036.45147835
  Solvation  Ediel_sol  =         0.00000000
  ---------------------------------------------------
  free energy    TOTEN  =       -64.96704952 eV

  energy without entropy =      -64.95427256  energy(sigma->0) =      -64.96066104


--------------------------------------------------------------------------------------------------------




--------------------------------------- Iteration      1(   3)  ---------------------------------------


     EDDAV:  cpu time      9.8251: real time      9.8889
       DOS:  cpu time      0.0012: real time      0.0012
    --------------------------------------------
      LOOP:  cpu time      9.8263: real time      9.8901

 eigenvalue-minimisations  :  8632
 total energy-change (2. order) :-0.2168072E+03  (-0.2110704E+03)
 number of electron     360.0000000 magnetization      72.0000000
 augmentation part      360.0000000 magnetization      72.0000000

 Free energy of the ion-electron system (eV)
  ---------------------------------------------------
  alpha Z        PSCENC =       793.82988754
  Ewald energy   TEWEN  =    -12828.63574790
  -Hartree energ DENC   =     -1131.55681219
  -exchange      EXHF   =         0.00000000
  -V(xc)+E(xc)   XCENC  =      -293.95212307
  PAW double counting   =     10738.42099860    -9719.93139476
  entropy T*S    EENTRO =        -0.00035169
  eigenvalues    EBANDS =      -876.40018906
  atomic energy  EATOM  =     13036.45147835
  Solvation  Ediel_sol  =         0.00000000
  ---------------------------------------------------
  free energy    TOTEN  =      -281.77425418 eV

  energy without entropy =     -281.77390250  energy(sigma->0) =     -281.77407834


--------------------------------------------------------------------------------------------------------




--------------------------------------- Iteration      1(   4)  ---------------------------------------


     EDDAV:  cpu time      9.9266: real time      9.9734
       DOS:  cpu time      0.0011: real time      0.0011
    --------------------------------------------
      LOOP:  cpu time      9.9277: real time      9.9744

 eigenvalue-minimisations  :  8736
 total energy-change (2. order) :-0.7787821E+01  (-0.7700319E+01)
 number of electron     360.0000000 magnetization      72.0000000
 augmentation part      360.0000000 magnetization      72.0000000

 Free energy of the ion-electron system (eV)
  ---------------------------------------------------
  alpha Z        PSCENC =       793.82988754
  Ewald energy   TEWEN  =    -12828.63574790
  -Hartree energ DENC   =     -1131.55681219
  -exchange      EXHF   =         0.00000000
  -V(xc)+E(xc)   XCENC  =      -293.95212307
  PAW double counting   =     10738.42099860    -9719.93139476
  entropy T*S    EENTRO =        -0.00002975
  eigenvalues    EBANDS =      -884.18833239
  atomic energy  EATOM  =     13036.45147835
  Solvation  Ediel_sol  =         0.00000000
  ---------------------------------------------------
  free energy    TOTEN  =      -289.56207558 eV

  energy without entropy =     -289.56204583  energy(sigma->0) =     -289.56206071


--------------------------------------------------------------------------------------------------------




--------------------------------------- Iteration      1(   5)  ---------------------------------------


     EDDAV:  cpu time     10.1948: real time     10.2424
       DOS:  cpu time      0.0011: real time      0.0011
    CHARGE:  cpu time      0.4226: real time      0.4243
    MIXING:  cpu time      0.0070: real time      0.0071
    --------------------------------------------
      LOOP:  cpu time     10.6256: real time     10.6749

 eigenvalue-minimisations  :  9008
 total energy-change (2. order) :-0.2894547E+00  (-0.2886595E+00)
 number of electron     359.9999996 magnetization      48.8508286
 augmentation part      -66.8254390 magnetization      49.0624841

 Broyden mixing:
  rms(total) = 0.29161E+01    rms(broyden)= 0.29161E+01
  rms(prec ) = 0.30722E+01
  weight for this iteration     100.00

 Free energy of the ion-electron system (eV)
  ---------------------------------------------------
  alpha Z        PSCENC =       793.82988754
  Ewald energy   TEWEN  =    -12828.63574790
  -Hartree energ DENC   =     -1131.55681219
  -exchange      EXHF   =         0.00000000
  -V(xc)+E(xc)   XCENC  =      -293.95212307
  PAW double counting   =     10738.42099860    -9719.93139476
  entropy T*S    EENTRO =        -0.00003460
  eigenvalues    EBANDS =      -884.47778222
  atomic energy  EATOM  =     13036.45147835
  Solvation  Ediel_sol  =         0.00000000
  ---------------------------------------------------
  free energy    TOTEN  =      -289.85153025 eV

  energy without entropy =     -289.85149566  energy(sigma->0) =     -289.85151296


--------------------------------------------------------------------------------------------------------




--------------------------------------- Iteration      1(   6)  ---------------------------------------


    POTLOK:  cpu time      0.1373: real time      0.1386
    SETDIJ:  cpu time      0.6001: real time      0.6023
     EDDAV:  cpu time      9.2958: real time      9.3412
       DOS:  cpu time      0.0011: real time      0.0011
    CHARGE:  cpu time      0.4180: real time      0.4199
    MIXING:  cpu time      0.0080: real time      0.0080
    --------------------------------------------
      LOOP:  cpu time     10.4603: real time     10.5111

 eigenvalue-minimisations  :  7968
 total energy-change (2. order) : 0.6543256E+00  (-0.2677176E+01)
 number of electron     359.9999996 magnetization      27.9997383
 augmentation part      -66.2192129 magnetization      29.1875700

 Broyden mixing:
  rms(total) = 0.17283E+01    rms(broyden)= 0.17283E+01
  rms(prec ) = 0.17651E+01
  weight for this iteration     100.00

 eigenvalues of (default mixing * dielectric matrix)
  average eigenvalue GAMMA=   1.0091
  1.0091

 Free energy of the ion-electron system (eV)
  ---------------------------------------------------
  alpha Z        PSCENC =       793.82988754
  Ewald energy   TEWEN  =    -12828.63574790
  -Hartree energ DENC   =     -1184.88556156
  -exchange      EXHF   =         0.00000000
  -V(xc)+E(xc)   XCENC  =      -287.32908074
  PAW double counting   =     13021.90280980   -12006.92340726
  entropy T*S    EENTRO =        -0.00000437
  eigenvalues    EBANDS =      -833.60757848
  atomic energy  EATOM  =     13036.45147835
  Solvation  Ediel_sol  =         0.00000000
  ---------------------------------------------------
  free energy    TOTEN  =      -289.19720463 eV

  energy without entropy =     -289.19720026  energy(sigma->0) =     -289.19720244


--------------------------------------------------------------------------------------------------------




--------------------------------------- Iteration      1(   7)  ---------------------------------------


    POTLOK:  cpu time      0.1331: real time      0.1337
    SETDIJ:  cpu time      0.5971: real time      0.5989
     EDDAV:  cpu time      9.3320: real time      9.3757
       DOS:  cpu time      0.0011: real time      0.0011
    CHARGE:  cpu time      0.4193: real time      0.4209
    MIXING:  cpu time      0.0075: real time      0.0075
    --------------------------------------------
      LOOP:  cpu time     10.4901: real time     10.5379

 eigenvalue-minimisations  :  7976
 total energy-change (2. order) :-0.7619569E+01  (-0.8791311E+00)
 number of electron     359.9999996 magnetization       9.2947041
 augmentation part      -66.1962453 magnetization       9.9718520

 Broyden mixing:
  rms(total) = 0.91110E+00    rms(broyden)= 0.91110E+00
  rms(prec ) = 0.92750E+00
  weight for this iteration     100.00

 eigenvalues of (default mixing * dielectric matrix)
  average eigenvalue GAMMA=   1.4540
  0.8642  2.0439

 Free energy of the ion-electron system (eV)
  ---------------------------------------------------
  alpha Z        PSCENC =       793.82988754
  Ewald energy   TEWEN  =    -12828.63574790
  -Hartree energ DENC   =     -1202.04691237
  -exchange      EXHF   =         0.00000000
  -V(xc)+E(xc)   XCENC  =      -290.25365711
  PAW double counting   =     15114.74644391   -14101.39044753
  entropy T*S    EENTRO =        -0.00000000
  eigenvalues    EBANDS =      -819.51781842
  atomic energy  EATOM  =     13036.45147835
  Solvation  Ediel_sol  =         0.00000000
  ---------------------------------------------------
  free energy    TOTEN  =      -296.81677354 eV

  energy without entropy =     -296.81677354  energy(sigma->0) =     -296.81677354


--------------------------------------------------------------------------------------------------------




--------------------------------------- Iteration      1(   8)  ---------------------------------------


    POTLOK:  cpu time      0.1305: real time      0.1311
    SETDIJ:  cpu time      0.6006: real time      0.6028
     EDDAV:  cpu time      9.4730: real time      9.5187
       DOS:  cpu time      0.0008: real time      0.0008
    CHARGE:  cpu time      0.4172: real time      0.4191
    MIXING:  cpu time      0.0077: real time      0.0077
    --------------------------------------------
      LOOP:  cpu time     10.6298: real time     10.6802

 eigenvalue-minimisations  :  8200
 total energy-change (2. order) :-0.3212410E+01  (-0.1744363E+00)
 number of electron     359.9999996 magnetization       4.4064298
 augmentation part      -66.2083018 magnetization       4.7161816

 Broyden mixing:
  rms(total) = 0.33136E+00    rms(broyden)= 0.33136E+00
  rms(prec ) = 0.33646E+00
  weight for this iteration     100.00

 eigenvalues of (default mixing * dielectric matrix)
  average eigenvalue GAMMA=   1.3596
  2.4988  0.9256  0.6543

 Free energy of the ion-electron system (eV)
  ---------------------------------------------------
  alpha Z        PSCENC =       793.82988754
  Ewald energy   TEWEN  =    -12828.63574790
  -Hartree energ DENC   =     -1206.51759972
  -exchange      EXHF   =         0.00000000
  -V(xc)+E(xc)   XCENC  =      -290.01335471
  PAW double counting   =     16889.72192624   -15877.28936975
  entropy T*S    EENTRO =        -0.00000000
  eigenvalues    EBANDS =      -817.57640357
  atomic energy  EATOM  =     13036.45147835
  Solvation  Ediel_sol  =         0.00000000
  ---------------------------------------------------
  free energy    TOTEN  =      -300.02918351 eV

  energy without entropy =     -300.02918351  energy(sigma->0) =     -300.02918351


--------------------------------------------------------------------------------------------------------




--------------------------------------- Iteration      1(   9)  ---------------------------------------


    POTLOK:  cpu time      0.1318: real time      0.1324
    SETDIJ:  cpu time      0.5962: real time      0.5982
     EDDAV:  cpu time     10.2815: real time     10.3297
       DOS:  cpu time      0.0009: real time      0.0009
    CHARGE:  cpu time      0.4203: real time      0.4218
    MIXING:  cpu time      0.0072: real time      0.0072
    --------------------------------------------
      LOOP:  cpu time     11.4379: real time     11.4903

 eigenvalue-minimisations  :  9072
 total energy-change (2. order) :-0.3824816E+00  (-0.4291208E-01)
 number of electron     359.9999996 magnetization       2.3383785
 augmentation part      -66.2458514 magnetization       2.4913332

 Broyden mixing:
  rms(total) = 0.14870E+00    rms(broyden)= 0.14870E+00
  rms(prec ) = 0.15048E+00
  weight for this iteration     100.00

 eigenvalues of (default mixing * dielectric matrix)
  average eigenvalue GAMMA=   1.3269
  2.6344  1.2213  0.8325  0.6193

 Free energy of the ion-electron system (eV)
  ---------------------------------------------------
  alpha Z        PSCENC =       793.82988754
  Ewald energy   TEWEN  =    -12828.63574790
  -Hartree energ DENC   =     -1205.68458695
  -exchange      EXHF   =         0.00000000
  -V(xc)+E(xc)   XCENC  =      -290.04025385
  PAW double counting   =     17182.32241853   -16170.23612134
  entropy T*S    EENTRO =        -0.00000000
  eigenvalues    EBANDS =      -818.41873953
  atomic energy  EATOM  =     13036.45147835
  Solvation  Ediel_sol  =         0.00000000
  ---------------------------------------------------
  free energy    TOTEN  =      -300.41166514 eV

  energy without entropy =     -300.41166514  energy(sigma->0) =     -300.41166514


--------------------------------------------------------------------------------------------------------




--------------------------------------- Iteration      1(  10)  ---------------------------------------


    POTLOK:  cpu time      0.1297: real time      0.1303
    SETDIJ:  cpu time      0.5966: real time      0.6035
     EDDAV:  cpu time      9.4078: real time      9.4523
       DOS:  cpu time      0.0008: real time      0.0008
    CHARGE:  cpu time      0.4177: real time      0.4224
    MIXING:  cpu time      0.0075: real time      0.0075
    --------------------------------------------
      LOOP:  cpu time     10.5602: real time     10.6169

 eigenvalue-minimisations  :  8152
 total energy-change (2. order) :-0.1030052E+00  (-0.8932130E-02)
 number of electron     359.9999996 magnetization       0.7456652
 augmentation part      -66.2457485 magnetization       0.8157906

 Broyden mixing:
  rms(total) = 0.74200E-01    rms(broyden)= 0.74200E-01
  rms(prec ) = 0.75274E-01
  weight for this iteration     100.00

 eigenvalues of (default mixing * dielectric matrix)
  average eigenvalue GAMMA=   1.3754
  2.7071  1.7518  0.9690  0.8236  0.6255

 Free energy of the ion-electron system (eV)
  ---------------------------------------------------
  alpha Z        PSCENC =       793.82988754
  Ewald energy   TEWEN  =    -12828.63574790
  -Hartree energ DENC   =     -1206.00013117
  -exchange      EXHF   =         0.00000000
  -V(xc)+E(xc)   XCENC  =      -290.02933397
  PAW double counting   =     17190.47493817   -16178.40412830
  entropy T*S    EENTRO =        -0.00000000
  eigenvalues    EBANDS =      -818.20163308
  atomic energy  EATOM  =     13036.45147835
  Solvation  Ediel_sol  =         0.00000000
  ---------------------------------------------------
  free energy    TOTEN  =      -300.51467037 eV

  energy without entropy =     -300.51467037  energy(sigma->0) =     -300.51467037


--------------------------------------------------------------------------------------------------------




--------------------------------------- Iteration      1(  11)  ---------------------------------------


    POTLOK:  cpu time      0.1300: real time      0.1307
    SETDIJ:  cpu time      0.5986: real time      0.6010
     EDDAV:  cpu time     10.1063: real time     10.1545
       DOS:  cpu time      0.0009: real time      0.0009
    CHARGE:  cpu time      0.4219: real time      0.4235
    MIXING:  cpu time      0.0079: real time      0.0079
    --------------------------------------------
      LOOP:  cpu time     11.2655: real time     11.3183

 eigenvalue-minimisations  :  8808
 total energy-change (2. order) :-0.3348588E-01  (-0.3960626E-02)
 number of electron     359.9999996 magnetization       0.1835265
 augmentation part      -66.2322430 magnetization       0.2022316

 Broyden mixing:
  rms(total) = 0.29072E-01    rms(broyden)= 0.29072E-01
  rms(prec ) = 0.29681E-01
  weight for this iteration     100.00

 eigenvalues of (default mixing * dielectric matrix)
  average eigenvalue GAMMA=   1.4069
  2.9177  2.1866  1.1598  0.8592  0.6951  0.6229

 Free energy of the ion-electron system (eV)
  ---------------------------------------------------
  alpha Z        PSCENC =       793.82988754
  Ewald energy   TEWEN  =    -12828.63574790
  -Hartree energ DENC   =     -1207.09648220
  -exchange      EXHF   =         0.00000000
  -V(xc)+E(xc)   XCENC  =      -289.98839588
  PAW double counting   =     17113.19324859   -16101.09388536
  entropy T*S    EENTRO =        -0.00000000
  eigenvalues    EBANDS =      -817.20825939
  atomic energy  EATOM  =     13036.45147835
  Solvation  Ediel_sol  =         0.00000000
  ---------------------------------------------------
  free energy    TOTEN  =      -300.54815625 eV

  energy without entropy =     -300.54815625  energy(sigma->0) =     -300.54815625


--------------------------------------------------------------------------------------------------------




--------------------------------------- Iteration      1(  12)  ---------------------------------------


    POTLOK:  cpu time      0.1323: real time      0.1335
    SETDIJ:  cpu time      0.5982: real time      0.6002
     EDDAV:  cpu time     10.0080: real time     10.0552
       DOS:  cpu time      0.0008: real time      0.0008
    CHARGE:  cpu time      0.4213: real time      0.4233
    MIXING:  cpu time      0.0077: real time      0.0078
    --------------------------------------------
      LOOP:  cpu time     11.1685: real time     11.2208

 eigenvalue-minimisations  :  8624
 total energy-change (2. order) :-0.3376676E-02  (-0.4704962E-03)
 number of electron     359.9999996 magnetization       0.0679403
 augmentation part      -66.2317836 magnetization       0.0725966

 Broyden mixing:
  rms(total) = 0.11380E-01    rms(broyden)= 0.11380E-01
  rms(prec ) = 0.12113E-01
  weight for this iteration     100.00

 eigenvalues of (default mixing * dielectric matrix)
  average eigenvalue GAMMA=   1.3598
  3.0090  2.3306  1.1862  0.8665  0.8665  0.6056  0.6539

 Free energy of the ion-electron system (eV)
  ---------------------------------------------------
  alpha Z        PSCENC =       793.82988754
  Ewald energy   TEWEN  =    -12828.63574790
  -Hartree energ DENC   =     -1207.19465515
  -exchange      EXHF   =         0.00000000
  -V(xc)+E(xc)   XCENC  =      -289.99114562
  PAW double counting   =     17076.33553423   -16064.21300699
  entropy T*S    EENTRO =        -0.00000000
  eigenvalues    EBANDS =      -817.13387739
  atomic energy  EATOM  =     13036.45147835
  Solvation  Ediel_sol  =         0.00000000
  ---------------------------------------------------
  free energy    TOTEN  =      -300.55153293 eV

  energy without entropy =     -300.55153293  energy(sigma->0) =     -300.55153293


--------------------------------------------------------------------------------------------------------




--------------------------------------- Iteration      1(  13)  ---------------------------------------


    POTLOK:  cpu time      0.1295: real time      0.1301
    SETDIJ:  cpu time      0.5991: real time      0.6009
     EDDAV:  cpu time     11.0331: real time     11.0848
       DOS:  cpu time      0.0007: real time      0.0007
    CHARGE:  cpu time      0.4216: real time      0.4236
    MIXING:  cpu time      0.0078: real time      0.0078
    --------------------------------------------
      LOOP:  cpu time     12.1917: real time     12.2479

 eigenvalue-minimisations  :  9880
 total energy-change (2. order) :-0.1105239E-03  (-0.6952226E-04)
 number of electron     359.9999996 magnetization       0.0191361
 augmentation part      -66.2329009 magnetization       0.0200524

 Broyden mixing:
  rms(total) = 0.52192E-02    rms(broyden)= 0.52192E-02
  rms(prec ) = 0.54368E-02
  weight for this iteration     100.00

 eigenvalues of (default mixing * dielectric matrix)
  average eigenvalue GAMMA=   1.3483
  3.0542  2.4307  1.0709  1.0709  1.0439  0.8592  0.6481  0.6087

 Free energy of the ion-electron system (eV)
  ---------------------------------------------------
  alpha Z        PSCENC =       793.82988754
  Ewald energy   TEWEN  =    -12828.63574790
  -Hartree energ DENC   =     -1207.11263857
  -exchange      EXHF   =         0.00000000
  -V(xc)+E(xc)   XCENC  =      -290.00011001
  PAW double counting   =     17063.40115084   -16051.26844630
  entropy T*S    EENTRO =        -0.00000000
  eigenvalues    EBANDS =      -817.21721739
  atomic energy  EATOM  =     13036.45147835
  Solvation  Ediel_sol  =         0.00000000
  ---------------------------------------------------
  free energy    TOTEN  =      -300.55164345 eV

  energy without entropy =     -300.55164345  energy(sigma->0) =     -300.55164345


--------------------------------------------------------------------------------------------------------




--------------------------------------- Iteration      1(  14)  ---------------------------------------


    POTLOK:  cpu time      0.1296: real time      0.1302
    SETDIJ:  cpu time      0.6016: real time      0.6037
     EDDAV:  cpu time      9.6345: real time      9.6895
       DOS:  cpu time      0.0008: real time      0.0008
    CHARGE:  cpu time      0.4167: real time      0.4186
    MIXING:  cpu time      0.0082: real time      0.0082
    --------------------------------------------
      LOOP:  cpu time     10.7913: real time     10.8510

 eigenvalue-minimisations  :  8288
 total energy-change (2. order) :-0.2052627E-04  (-0.1140423E-04)
 number of electron     359.9999996 magnetization       0.0055532
 augmentation part      -66.2325851 magnetization       0.0059133

 Broyden mixing:
  rms(total) = 0.18342E-02    rms(broyden)= 0.18342E-02
  rms(prec ) = 0.19482E-02
  weight for this iteration     100.00

 eigenvalues of (default mixing * dielectric matrix)
  average eigenvalue GAMMA=   1.3342
  3.0850  2.4599  1.4496  1.2004  0.8744  0.8744  0.8077  0.6148  0.6415

 Free energy of the ion-electron system (eV)
  ---------------------------------------------------
  alpha Z        PSCENC =       793.82988754
  Ewald energy   TEWEN  =    -12828.63574790
  -Hartree energ DENC   =     -1207.11675636
  -exchange      EXHF   =         0.00000000
  -V(xc)+E(xc)   XCENC  =      -290.00077200
  PAW double counting   =     17058.56397108   -16046.42813521
  entropy T*S    EENTRO =        -0.00000000
  eigenvalues    EBANDS =      -817.21558947
  atomic energy  EATOM  =     13036.45147835
  Solvation  Ediel_sol  =         0.00000000
  ---------------------------------------------------
  free energy    TOTEN  =      -300.55166398 eV

  energy without entropy =     -300.55166398  energy(sigma->0) =     -300.55166398


--------------------------------------------------------------------------------------------------------




--------------------------------------- Iteration      1(  15)  ---------------------------------------


    POTLOK:  cpu time      0.1292: real time      0.1299
    SETDIJ:  cpu time      0.5994: real time      0.6012
     EDDAV:  cpu time      9.9083: real time      9.9575
       DOS:  cpu time      0.0010: real time      0.0010
    CHARGE:  cpu time      0.4190: real time      0.4209
    MIXING:  cpu time      0.0084: real time      0.0085
    --------------------------------------------
      LOOP:  cpu time     11.0654: real time     11.1189

 eigenvalue-minimisations  :  8568
 total energy-change (2. order) :-0.4245082E-05  (-0.2132724E-05)
 number of electron     359.9999996 magnetization       0.0018986
 augmentation part      -66.2327896 magnetization       0.0021055

 Broyden mixing:
  rms(total) = 0.78737E-03    rms(broyden)= 0.78737E-03
  rms(prec ) = 0.83703E-03
  weight for this iteration     100.00

 eigenvalues of (default mixing * dielectric matrix)
  average eigenvalue GAMMA=   1.2976
  3.0987  2.4311  1.6371  1.0696  0.9823  0.9823  0.8376  0.7006  0.6185  0.6185

 Free energy of the ion-electron system (eV)
  ---------------------------------------------------
  alpha Z        PSCENC =       793.82988754
  Ewald energy   TEWEN  =    -12828.63574790
  -Hartree energ DENC   =     -1207.09973822
  -exchange      EXHF   =         0.00000000
  -V(xc)+E(xc)   XCENC  =      -290.00146324
  PAW double counting   =     17057.87360566   -16045.73673667
  entropy T*S    EENTRO =        -0.00000000
  eigenvalues    EBANDS =      -817.23295374
  atomic energy  EATOM  =     13036.45147835
  Solvation  Ediel_sol  =         0.00000000
  ---------------------------------------------------
  free energy    TOTEN  =      -300.55166822 eV

  energy without entropy =     -300.55166822  energy(sigma->0) =     -300.55166822


--------------------------------------------------------------------------------------------------------




--------------------------------------- Iteration      1(  16)  ---------------------------------------


    POTLOK:  cpu time      0.1301: real time      0.1307
    SETDIJ:  cpu time      0.6002: real time      0.6019
     EDDAV:  cpu time      6.8578: real time      6.8907
       DOS:  cpu time      0.0009: real time      0.0009
    --------------------------------------------
      LOOP:  cpu time      7.5890: real time      7.6243

 eigenvalue-minimisations  :  5096
 total energy-change (2. order) :-0.6604359E-06  (-0.1729572E-06)
 number of electron     359.9999996 magnetization       0.0018986
 augmentation part      -66.2327896 magnetization       0.0021055

 Free energy of the ion-electron system (eV)
  ---------------------------------------------------
  alpha Z        PSCENC =       793.82988754
  Ewald energy   TEWEN  =    -12828.63574790
  -Hartree energ DENC   =     -1207.09399834
  -exchange      EXHF   =         0.00000000
  -V(xc)+E(xc)   XCENC  =      -290.00174178
  PAW double counting   =     17057.77260010   -16045.63544453
  entropy T*S    EENTRO =        -0.00000000
  eigenvalues    EBANDS =      -817.23870231
  atomic energy  EATOM  =     13036.45147835
  Solvation  Ediel_sol  =         0.00000000
  ---------------------------------------------------
  free energy    TOTEN  =      -300.55166888 eV

  energy without entropy =     -300.55166888  energy(sigma->0) =     -300.55166888


--------------------------------------------------------------------------------------------------------




 average (electrostatic) potential at core
  the test charge radii are     1.1631  1.0808
  (the norm of the test charge is              1.0000)
       1 -33.4906       2 -33.6296       3 -33.4826       4 -33.2802       5 -33.3856
       6 -33.5180       7 -33.7100       8 -33.5199       9 -33.3505      10 -33.6540
      11 -33.8037      12 -33.6134      13 -33.3201      14 -33.6832      15 -33.6209
      16 -33.5027      17 -33.4988      18 -33.4841      19 -33.4438      20 -33.6497
      21 -33.3870      22 -33.3967      23 -33.4734      24 -33.3666      25 -33.2771
      26 -33.6129      27 -33.4084      28 -33.4662      29 -33.3675      30 -33.5037
      31 -33.5004      32 -33.4188      33 -33.4644      34 -33.5457      35 -33.5030
      36 -33.5513      37 -54.9768      38 -54.7792      39 -54.7542      40 -54.8845
      41 -55.0652      42 -54.8872      43 -54.8718      44 -54.8398      45 -55.1445
      46 -55.0228      47 -54.8090      48 -54.8320      49 -54.6790      50 -54.9927
      51 -54.9706      52 -55.0392      53 -54.9208      54 -54.8024      55 -54.8802
      56 -54.9668      57 -54.6491      58 -54.7619      59 -54.8989      60 -54.8700
      61 -54.4680      62 -54.9317      63 -54.8183      64 -54.8573      65 -54.9463
      66 -55.0712      67 -54.9729      68 -54.8014      69 -54.7237      70 -54.8609
      71 -54.9331      72 -54.8609
 
 
 
 E-fermi :   3.4068     XC(G=0):  -9.3512     alpha+bet : -8.7870

 Fermi energy:         3.4068366172

 spin component 1

 k-point     1 :       0.0000    0.0000    0.0000
  band No.  band energies     occupation 
      1     -10.9361      1.00000
      2     -10.6031      1.00000
      3     -10.5060      1.00000
      4     -10.3993      1.00000
      5     -10.3642      1.00000
      6     -10.3236      1.00000
      7     -10.1885      1.00000
      8     -10.0743      1.00000
      9     -10.0578      1.00000
     10     -10.0028      1.00000
     11      -9.9021      1.00000
     12      -9.8743      1.00000
     13      -9.8618      1.00000
     14      -9.7875      1.00000
     15      -9.7316      1.00000
     16      -9.6851      1.00000
     17      -9.6348      1.00000
     18      -9.6220      1.00000
     19      -9.5634      1.00000
     20      -9.5080      1.00000
     21      -9.4729      1.00000
     22      -9.4447      1.00000
     23      -9.3903      1.00000
     24      -9.3702      1.00000
     25      -9.3247      1.00000
     26      -9.3123      1.00000
     27      -9.2529      1.00000
     28      -9.2090      1.00000
     29      -9.1946      1.00000
     30      -9.1570      1.00000
     31      -9.1508      1.00000
     32      -9.1138      1.00000
     33      -9.0990      1.00000
     34      -9.0060      1.00000
     35      -8.9796      1.00000
     36      -8.8262      1.00000
     37      -5.4637      1.00000
     38      -5.4316      1.00000
     39      -5.3428      1.00000
     40      -5.2658      1.00000
     41      -5.1486      1.00000
     42      -5.0758      1.00000
     43      -5.0325      1.00000
     44      -4.9962      1.00000
     45      -4.7603      1.00000
     46      -4.7293      1.00000
     47      -4.6697      1.00000
     48      -4.6153      1.00000
     49      -4.5678      1.00000
     50      -4.4955      1.00000
     51      -4.4606      1.00000
     52      -4.4500      1.00000
     53      -4.3956      1.00000
     54      -4.3806      1.00000
     55      -4.3522      1.00000
     56      -4.3048      1.00000
     57      -4.2732      1.00000
     58      -4.2159      1.00000
     59      -4.1915      1.00000
     60      -4.1637      1.00000
     61      -4.1263      1.00000
     62      -4.0949      1.00000
     63      -4.0344      1.00000
     64      -3.9938      1.00000
     65      -3.9461      1.00000
     66      -3.9027      1.00000
     67      -3.7447      1.00000
     68      -3.6667      1.00000
     69      -3.5422      1.00000
     70      -3.5113      1.00000
     71      -2.4830      1.00000
     72      -2.4488      1.00000
     73      -1.8858      1.00000
     74      -1.6606      1.00000
     75      -1.5577      1.00000
     76      -1.5224      1.00000
     77      -1.4749      1.00000
     78      -1.4601      1.00000
     79      -1.3756      1.00000
     80      -1.2662      1.00000
     81      -1.1889      1.00000
     82      -1.1720      1.00000
     83      -1.1481      1.00000
     84      -1.0670      1.00000
     85      -1.0364      1.00000
     86      -0.8516      1.00000
     87      -0.8006      1.00000
     88      -0.7638      1.00000
     89      -0.6838      1.00000
     90      -0.6710      1.00000
     91      -0.6042      1.00000
     92      -0.5465      1.00000
     93      -0.5169      1.00000
     94      -0.3397      1.00000
     95      -0.2787      1.00000
     96      -0.1541      1.00000
     97      -0.1396      1.00000
     98      -0.0382      1.00000
     99      -0.0255      1.00000
    100      -0.0072      1.00000
    101       0.0471      1.00000
    102       0.1166      1.00000
    103       0.1364      1.00000
    104       0.1765      1.00000
    105       0.1902      1.00000
    106       0.2528      1.00000
    107       0.2854      1.00000
    108       0.3329      1.00000
    109       0.3512      1.00000
    110       0.3653      1.00000
    111       0.4184      1.00000
    112       0.4561      1.00000
    113       0.4954      1.00000
    114       0.5794      1.00000
    115       0.5982      1.00000
    116       0.6405      1.00000
    117       0.6639      1.00000
    118       0.6948      1.00000
    119       0.7316      1.00000
    120       0.7397      1.00000
    121       0.7780      1.00000
    122       0.8083      1.00000
    123       0.8479      1.00000
    124       0.8962      1.00000
    125       0.9290      1.00000
    126       0.9707      1.00000
    127       1.0029      1.00000
    128       1.0316      1.00000
    129       1.0658      1.00000
    130       1.0930      1.00000
    131       1.1433      1.00000
    132       1.1589      1.00000
    133       1.2153      1.00000
    134       1.2455      1.00000
    135       1.2803      1.00000
    136       1.3104      1.00000
    137       1.3531      1.00000
    138       1.3711      1.00000
    139       1.4111      1.00000
    140       1.4451      1.00000
    141       1.5107      1.00000
    142       1.5609      1.00000
    143       1.5956      1.00000
    144       1.6541      1.00000
    145       1.6689      1.00000
    146       1.7359      1.00000
    147       1.7428      1.00000
    148       1.7853      1.00000
[...]
   0.669E+01 0.106E+02 -.160E+02   -.862E+01 -.115E+02 0.185E+02   0.215E+01 0.348E+00 -.293E+01   0.241E-03 -.498E-04 0.110E-03
   -.876E+01 0.142E+02 0.263E+02   0.923E+01 -.165E+02 -.289E+02   -.461E+00 0.230E+01 0.292E+01   0.881E-04 -.950E-04 0.879E-04
   0.125E+02 0.919E+00 0.153E+02   -.133E+02 -.188E+01 -.171E+02   0.268E+00 0.895E+00 0.126E+01   0.214E-03 0.230E-03 0.239E-03
   0.206E+02 0.128E+02 0.125E+02   -.211E+02 -.144E+02 -.140E+02   0.156E+00 0.112E+01 0.187E+01   -.110E-05 -.241E-03 0.127E-03
   -.138E+02 0.667E+01 0.429E+01   0.151E+02 -.638E+01 -.499E+01   -.157E+01 -.360E+00 0.150E+01   0.330E-03 -.422E-03 0.400E-04
   -.225E+02 0.942E+00 0.181E+02   0.242E+02 -.896E+00 -.199E+02   -.152E+01 -.703E+00 0.174E+01   0.273E-03 -.272E-03 0.159E-04
   0.861E+01 0.915E+01 0.172E+02   -.866E+01 -.102E+02 -.187E+02   -.228E+00 0.792E+00 0.122E+01   -.340E-03 0.418E-03 0.606E-04
   0.747E+01 0.172E+02 0.170E+02   -.750E+01 -.187E+02 -.188E+02   0.299E+00 0.168E+01 0.199E+01   0.135E-03 -.792E-04 -.104E-03
   -.358E+02 -.323E+01 0.224E+02   0.374E+02 0.376E+01 -.240E+02   -.161E+01 -.133E+00 0.201E+01   0.476E-03 -.876E-04 0.123E-03
   -.405E+01 -.233E+02 -.208E+02   0.353E+01 0.249E+02 0.225E+02   0.505E+00 -.999E+00 -.208E+01   0.900E-06 -.261E-03 0.263E-03
   -.188E+02 -.559E+01 -.267E+02   0.201E+02 0.563E+01 0.288E+02   -.106E+01 0.334E+00 -.158E+01   0.146E-03 0.520E-03 0.192E-04
   0.540E+00 -.134E+02 -.352E+02   -.875E+00 0.150E+02 0.372E+02   0.488E+00 -.149E+01 -.146E+01   0.322E-03 -.323E-03 0.631E-04
   0.396E+01 -.326E+01 -.192E+02   -.388E+01 0.417E+01 0.209E+02   -.361E+00 -.820E+00 -.184E+01   0.231E-04 -.137E-03 -.241E-03
   0.164E+02 -.174E+02 -.214E+02   -.166E+02 0.184E+02 0.232E+02   -.237E+00 -.136E+01 -.147E+01   0.418E-04 -.116E-04 -.244E-03
   0.155E+02 -.224E+01 -.212E+02   -.161E+02 0.311E+01 0.229E+02   0.116E+00 -.868E+00 -.152E+01   -.370E-03 0.332E-03 -.317E-03
   -.453E+01 0.692E+01 -.315E+02   0.564E+01 -.722E+01 0.334E+02   -.181E+01 0.302E+00 -.187E+01   0.305E-03 -.430E-03 0.165E-03
   0.272E+01 0.272E+01 0.307E+02   -.259E+01 -.375E+01 -.322E+02   -.415E+00 0.916E+00 0.137E+01   -.521E-03 0.742E-03 -.369E-04
   -.218E+02 0.158E+02 0.190E+02   0.227E+02 -.169E+02 -.208E+02   0.946E-01 0.556E+00 0.163E+01   -.451E-03 0.196E-03 0.493E-04
   0.400E+01 -.911E+01 0.324E+02   -.415E+01 0.104E+02 -.335E+02   0.157E+00 -.205E+01 0.882E+00   0.166E-03 0.117E-04 -.143E-03
   0.108E+02 -.195E+02 0.316E+02   -.112E+02 0.209E+02 -.336E+02   0.213E+00 -.129E+01 0.171E+01   -.305E-03 0.404E-03 -.166E-03
   -.222E+02 0.130E+02 0.339E+02   0.234E+02 -.137E+02 -.361E+02   -.119E+01 0.661E-01 0.265E+01   0.545E-03 0.920E-04 -.164E-03
   -.275E+02 0.135E+02 -.218E+02   0.290E+02 -.140E+02 0.237E+02   -.117E+01 0.305E+00 -.138E+01   -.104E-03 0.198E-03 -.131E-03
   0.106E+02 0.614E+01 -.311E+02   -.113E+02 -.742E+01 0.331E+02   0.334E+00 0.114E+01 -.203E+01   0.120E-03 -.193E-04 -.999E-05
   -.236E+02 -.946E+01 -.145E+02   0.250E+02 0.102E+02 0.157E+02   -.137E+01 -.211E+00 -.196E+01   0.298E-04 -.371E-03 0.404E-03
   0.709E+00 0.139E+02 -.155E+02   -.403E+00 -.147E+02 0.167E+02   -.547E+00 0.599E+00 -.209E+01   -.445E-03 0.430E-03 0.296E-03
   0.159E+01 -.109E+02 -.318E+02   -.139E+01 0.107E+02 0.332E+02   -.443E+00 0.719E+00 -.161E+01   -.354E-03 0.585E-03 0.467E-03
   0.160E+02 0.184E+02 -.167E+02   -.163E+02 -.196E+02 0.181E+02   0.509E+00 0.146E+01 -.146E+01   0.164E-04 -.514E-03 0.868E-05
   -.233E+02 -.198E+01 -.216E+02   0.251E+02 0.238E+01 0.227E+02   -.117E+01 -.107E-01 -.154E+01   0.287E-03 0.123E-03 0.116E-03
   -.298E+02 0.498E+01 -.270E+02   0.317E+02 -.500E+01 0.285E+02   -.140E+01 -.192E+00 -.172E+01   0.113E-03 -.424E-04 0.202E-03
   -.137E+02 -.128E+01 -.382E+02   0.141E+02 0.949E+00 0.403E+02   -.444E-01 0.882E+00 -.192E+01   -.294E-04 0.122E-03 0.259E-03
   0.810E+01 -.235E+01 -.275E+02   -.874E+01 0.195E+01 0.293E+02   0.313E+00 0.871E+00 -.196E+01   0.126E-03 0.450E-04 -.196E-03
   0.132E+02 -.716E+01 0.374E+02   -.135E+02 0.887E+01 -.393E+02   0.705E-02 -.115E+01 0.175E+01   0.257E-03 -.577E-03 -.247E-03
   -.148E+02 0.448E+01 0.263E+02   0.158E+02 -.496E+01 -.282E+02   -.114E+01 0.554E+00 0.173E+01   -.161E-03 0.272E-03 -.166E-03
   -.258E+00 -.697E+01 0.381E+02   0.236E+00 0.819E+01 -.396E+02   0.273E+00 -.210E+01 0.877E+00   -.421E-03 0.158E-03 -.321E-03
   -.170E+02 0.548E+01 0.328E+02   0.181E+02 -.568E+01 -.346E+02   -.137E+01 0.476E+00 0.218E+01   -.203E-03 -.337E-03 0.961E-04
   0.327E+01 -.194E+02 0.408E+02   -.366E+01 0.210E+02 -.430E+02   0.550E+00 -.135E+01 0.199E+01   0.339E-05 -.151E-04 0.130E-03
   0.416E+01 -.178E+02 0.279E+02   -.460E+01 0.190E+02 -.292E+02   0.371E+00 -.130E+01 0.162E+01   -.369E-04 -.150E-03 -.440E-03
   -.832E+01 -.145E+02 -.137E+02   0.837E+01 0.160E+02 0.150E+02   0.654E+00 -.119E+01 -.152E+01   -.442E-03 0.113E-05 -.582E-04
 -----------------------------------------------------------------------------------------------
   -.164E+02 -.897E+00 0.113E+01   -.140E-12 0.533E-13 0.284E-13   0.164E+02 0.896E+00 -.113E+01   0.231E-03 0.665E-03 -.231E-03
 
 
 POSITION                                       TOTAL-FORCE (eV/Angst)
 -----------------------------------------------------------------------------------
      1.19097      0.09958      1.51833         0.163548      0.159921     -0.576317
      3.25394     10.75013      4.04291         0.475889     -0.068121      0.272233
      7.12000      2.73349      4.31636        -0.278632     -0.043003     -0.174757
      7.47184      6.41185      4.04480        -0.720145      0.040476     -0.201214
      7.14773     10.76816      4.05758        -0.000457      0.110452      0.062499
     11.55974      2.21212      3.83172        -0.426795      0.236887     -0.046314
     11.24096      6.77276      4.34450         0.090214      0.268125     -0.546165
     11.16715     11.07409      4.42304        -0.257696     -0.265510     -0.254098
      0.90583      1.77745      6.97885         0.364313      0.491133      0.084886
      1.16693      6.42576      6.85236         0.381324     -0.036600      0.647294
      0.82084     10.35556      7.01351         0.272502     -0.391299      0.466840
      4.90468      1.79135      6.90734        -0.071883     -0.071542      0.349148
      5.20539      5.83336      6.83271        -0.201728      0.902929     -0.020275
      5.35948     10.46903      6.75084         0.027742      0.095004      0.564145
      9.43685      2.24518      6.89760         0.024787     -0.389671      0.396820
      9.11454      6.02746      7.03895         0.126746     -0.141728     -0.194670
      3.05577      6.92150      4.11823        -0.121006     -0.078060      0.385174
      2.73797      2.57880      4.14574         0.629079      0.138072      0.288955
      9.18339     10.28817      7.02412        -0.616190      0.319898      0.062635
     11.14898      8.31442      9.47455         0.305516     -0.444588      0.463350
     11.37208     12.26343      9.70212        -0.129853      0.231782      0.608201
      0.87943      4.86594      1.37771        -0.042729     -0.312950     -0.544457
      0.59144      9.03972      1.61753         0.099606      0.011733      0.014417
      5.20968      0.57789      1.44826         0.077821      0.212649     -0.046952
      4.75778      4.83262      1.46988         0.661582     -0.588577     -0.233938
      8.91633      0.63526      1.48583         0.117904      0.426251      0.300808
      9.54278      4.55167      1.43317        -0.198725      0.015504     -0.417752
      5.17442      8.47545      1.51474         0.524344     -0.010382     -0.129957
      3.08990      3.85756      9.61884         0.036527      0.262395     -0.094059
      3.22947      8.58113      9.77831        -0.103844     -0.774220     -0.752176
      3.04035     12.26544      9.72200        -0.089472      0.232924     -0.064773
      7.07827      3.93141      9.56616        -0.282378      0.088817      0.486465
      7.16328      8.25809      9.58343        -0.377051     -0.641478     -0.176046
      7.26577      0.02642      9.61528         0.145996      0.052496      0.009750
     11.47948      4.44624      9.66666         0.216665     -0.519066     -0.456542
      9.26357      8.95196      1.31233         0.003315      0.077378      0.351931
     11.36315      0.26004      7.25803        -0.520961     -0.069986     -0.534861
      3.04044      4.52780      7.02842        -0.358517     -0.416083      0.373524
      2.74392      8.55536      6.99519        -0.272493     -0.069272      0.804733
      6.87947      0.18586      7.09046         0.117767     -0.656823     -0.077943
      7.14835      4.17537      7.07602        -0.279312     -0.208493     -0.296728
      7.10732      8.58665      7.02891         0.270126      0.222334      0.220232
     11.07152      4.19434      7.05240        -0.015626      0.399270      0.421783
      9.03873      0.02225      4.10841        -0.010811      0.616589     -0.395738
      0.71334      0.11778      3.98036         0.280726      0.370568      0.459333
      0.76978      4.18951      3.76841         0.153510      0.019516      0.621648
      0.86060      8.54751      4.12994        -0.285942      0.090716     -0.139394
      5.29709      0.08713      3.91195        -0.465135     -0.365465      0.245791
      4.95439      4.32597      3.99646        -0.440402     -0.000093      0.228746
      5.07423      8.57633      4.01937        -0.704924      0.001727      0.053711
      2.83984      0.00476      7.17617        -0.280708     -0.119464     -0.109917
     10.87922      8.50546      7.02240         0.994482     -0.542940     -0.137647
     11.08827     10.88371      1.86045         0.006716     -0.809245     -0.244772
      3.04425      2.00182      1.70785        -0.193606      0.073676     -0.310564
     10.99023      2.39094      1.31451         0.062299     -0.580201      0.492676
      9.09391      4.44515      3.89451         0.321571     -0.204090      0.517691
      0.97689      2.44606      9.47186        -0.347179     -0.132684     -0.045127
      0.66859      6.34876      9.52070        -0.039226      0.575836     -0.745815
      0.80408     10.50151      9.78220        -0.242473     -0.280075     -0.888036
      4.91786      1.91357      9.50580        -0.239899      0.539534     -0.220446
      4.99625      6.59134      9.41348         0.305110      0.310900      0.027456
      4.83488     10.45710      9.46264         0.563681      0.394405     -0.422744
      8.84063      2.12605      9.50720         0.479226     -0.218849     -0.207752
      8.86580      6.17027      9.52121         0.342980      0.549153      0.180376
      9.29952     10.58539      9.60659        -0.330313      0.464784     -0.210994
      2.86206      6.49659      1.63632        -0.287233      0.553058     -0.111341
      2.84226     10.56367      1.59196        -0.218721      0.071149     -0.174534
      6.97156      2.55706      1.80833         0.250061     -0.879831     -0.614306
      6.88747      6.38951      1.47027        -0.241880      0.270902      0.336142
      7.06496     10.34846      1.55415         0.165884      0.198100     -0.142930
     11.36606      6.48162      1.66034        -0.067894     -0.112230      0.368831
      9.09458      8.32270      3.88891         0.702279      0.345573     -0.206173
 -----------------------------------------------------------------------------------
    total drift:                                0.000752      0.000543      0.000198


--------------------------------------------------------------------------------------------------------



  FREE ENERGIE OF THE ION-ELECTRON SYSTEM (eV)
  ---------------------------------------------------
  free  energy   TOTEN  =      -300.55166888 eV

  energy  without entropy=     -300.55166888  energy(sigma->0) =     -300.55166888
 


--------------------------------------------------------------------------------------------------------


    POTLOK:  cpu time      0.7306: real time      0.7335


--------------------------------------------------------------------------------------------------------


     LOOP+:  cpu time    181.5814: real time    182.4674
    4ORBIT:  cpu time      0.0000: real time      0.0000



 total charge

# of ion       s       p       d       tot
------------------------------------------
    1        1.325   0.775   0.059   2.159
    2        1.332   0.736   0.051   2.119
    3        1.328   0.758   0.059   2.145
    4        1.311   0.810   0.063   2.184
    5        1.302   0.812   0.065   2.178
    6        1.316   0.786   0.054   2.156
    7        1.338   0.704   0.048   2.089
    8        1.315   0.785   0.061   2.161
    9        1.305   0.809   0.059   2.172
   10        1.321   0.731   0.046   2.099
   11        1.345   0.681   0.046   2.071
   12        1.324   0.753   0.055   2.132
   13        1.324   0.776   0.056   2.157
   14        1.328   0.728   0.050   2.106
   15        1.330   0.735   0.053   2.118
   16        1.314   0.783   0.059   2.156
   17        1.319   0.777   0.056   2.151
   18        1.320   0.768   0.054   2.142
   19        1.313   0.804   0.062   2.178
   20        1.334   0.729   0.052   2.115
   21        1.323   0.787   0.057   2.167
   22        1.303   0.832   0.064   2.199
   23        1.332   0.748   0.051   2.131
   24        1.313   0.791   0.057   2.160
   25        1.318   0.792   0.059   2.169
   26        1.329   0.719   0.043   2.091
   27        1.324   0.783   0.059   2.167
   28        1.313   0.785   0.060   2.158
   29        1.320   0.762   0.051   2.133
   30        1.327   0.743   0.054   2.124
   31        1.323   0.765   0.058   2.146
   32        1.330   0.771   0.060   2.161
   33        1.322   0.749   0.051   2.122
   34        1.326   0.750   0.053   2.128
   35        1.317   0.758   0.053   2.129
   36        1.325   0.743   0.050   2.118
   37        1.474   2.324   0.035   3.832
   38        1.476   2.296   0.029   3.801
   39        1.478   2.273   0.026   3.776
   40        1.478   2.301   0.032   3.812
   41        1.475   2.328   0.039   3.841
   42        1.480   2.292   0.032   3.804
   43        1.478   2.291   0.029   3.798
   44        1.478   2.288   0.030   3.796
   45        1.477   2.315   0.038   3.830
   46        1.475   2.324   0.035   3.835
   47        1.478   2.286   0.029   3.793
   48        1.475   2.304   0.031   3.810
   49        1.475   2.285   0.027   3.788
   50        1.482   2.287   0.035   3.804
   51        1.474   2.299   0.031   3.804
   52        1.477   2.323   0.037   3.837
   53        1.479   2.286   0.031   3.797
   54        1.475   2.311   0.031   3.817
   55        1.483   2.273   0.030   3.786
   56        1.474   2.328   0.036   3.838
   57        1.475   2.297   0.028   3.800
   58        1.478   2.284   0.027   3.789
   59        1.480   2.273   0.029   3.782
   60        1.477   2.287   0.031   3.795
   61        1.475   2.279   0.023   3.777
   62        1.473   2.316   0.033   3.823
   63        1.474   2.310   0.030   3.814
   64        1.479   2.285   0.031   3.795
   65        1.479   2.284   0.031   3.794
   66        1.476   2.327   0.038   3.841
   67        1.478   2.303   0.034   3.815
   68        1.478   2.292   0.031   3.801
   69        1.479   2.278   0.029   3.785
   70        1.477   2.301   0.032   3.810
   71        1.480   2.292   0.031   3.803
   72        1.475   2.308   0.031   3.814
--------------------------------------------------
tot        100.759 110.249   3.120 214.128



 magnetization (x)

# of ion       s       p       d       tot
------------------------------------------
    1       -0.000   0.000   0.000   0.000
    2       -0.000   0.000   0.000   0.000
    3       -0.000   0.000  -0.000  -0.000
    4       -0.000  -0.000  -0.000  -0.000
    5       -0.000   0.000   0.000   0.000
    6       -0.000   0.000   0.000   0.000
    7       -0.000   0.000   0.000   0.000
    8       -0.000   0.000   0.000   0.000
    9       -0.000   0.000   0.000   0.000
   10       -0.000   0.000   0.000   0.000
   11       -0.000   0.000   0.000   0.000
   12       -0.000  -0.000  -0.000  -0.000
   13       -0.000  -0.000  -0.000  -0.000
   14       -0.000   0.000   0.000   0.000
   15       -0.000   0.000   0.000   0.000
   16       -0.000   0.000  -0.000   0.000
   17       -0.000  -0.000  -0.000  -0.000
   18       -0.000   0.000  -0.000   0.000
   19       -0.000   0.000   0.000   0.000
   20       -0.000   0.000   0.000   0.000
   21       -0.000   0.000   0.000   0.000
   22       -0.000   0.000  -0.000   0.000
   23       -0.000   0.000   0.000   0.000
   24       -0.000   0.000  -0.000   0.000
   25       -0.000  -0.000  -0.000  -0.000
   26       -0.000   0.000   0.000   0.000
   27       -0.000  -0.000  -0.000  -0.000
   28       -0.000   0.000  -0.000   0.000
   29       -0.000  -0.000  -0.000  -0.000
   30       -0.000   0.000   0.000   0.000
   31       -0.000   0.000   0.000   0.000
   32       -0.000  -0.000  -0.000  -0.000
   33       -0.000   0.000  -0.000   0.000
   34       -0.000   0.000   0.000   0.000
   35       -0.000   0.000   0.000   0.000
   36       -0.000   0.000   0.000   0.000
   37       -0.000  -0.000   0.000  -0.000
   38       -0.000  -0.000  -0.000  -0.000
   39       -0.000  -0.000   0.000  -0.000
   40       -0.000  -0.000   0.000  -0.000
   41       -0.000  -0.000  -0.000  -0.000
   42       -0.000  -0.000   0.000  -0.000
   43       -0.000  -0.000   0.000  -0.000
   44       -0.000  -0.000   0.000  -0.000
   45       -0.000  -0.000   0.000  -0.000
   46       -0.000  -0.000  -0.000  -0.000
   47       -0.000  -0.000   0.000  -0.000
   48       -0.000  -0.000   0.000  -0.000
   49       -0.000  -0.000  -0.000  -0.000
   50       -0.000  -0.000   0.000  -0.000
   51       -0.000  -0.000   0.000  -0.000
   52       -0.000  -0.000   0.000  -0.000
   53       -0.000  -0.000   0.000  -0.000
   54       -0.000  -0.000   0.000  -0.000
   55       -0.000  -0.000   0.000  -0.000
   56       -0.000  -0.000  -0.000  -0.000
   57       -0.000  -0.000   0.000  -0.000
   58       -0.000  -0.000   0.000  -0.000
   59       -0.000  -0.000   0.000  -0.000
   60       -0.000  -0.000  -0.000  -0.000
   61       -0.000  -0.000  -0.000  -0.000
   62       -0.000  -0.000   0.000  -0.000
   63       -0.000  -0.000   0.000  -0.000
   64       -0.000  -0.000  -0.000  -0.000
   65       -0.000  -0.000   0.000  -0.000
   66       -0.000  -0.000  -0.000  -0.000
   67       -0.000  -0.000   0.000  -0.000
   68       -0.000  -0.000  -0.000  -0.000
   69       -0.000  -0.000  -0.000  -0.000
   70       -0.000  -0.000   0.000  -0.000
   71       -0.000  -0.000   0.000  -0.000
   72       -0.000  -0.000   0.000  -0.000
--------------------------------------------------
tot         -0.000  -0.000   0.000  -0.000
 

 total amount of memory used by VASP MPI-rank0   111004. kBytes
=======================================================================

   base      :      30000. kBytes
   nonl-proj :      16422. kBytes
   fftplans  :       6180. kBytes
   grid      :      15593. kBytes
   one-center:        146. kBytes
   wavefun   :      42663. kBytes
 
  
  
 General timing and accounting informations for this job:
 ========================================================
  
                  Total CPU time used (sec):      193.369
                            User time (sec):      187.259
                          System time (sec):        6.110
                         Elapsed time (sec):      196.074
  
                   Maximum memory used (kb):      313080.
                   Average memory used (kb):          N/A
  
                          Minor page faults:        98245
                          Major page faults:           52
                 Voluntary context switches:         9497
