 running  128 mpi-ranks, with    1 threads/rank, on    2 nodes
 distrk:  each k-point on   64 cores,    2 groups
 distr:  one band on    8 cores,    8 groups
 vasp.6.4.2 20Jul23 (build Oct 12 2023 10:31:02) complex                         
 POSCAR found type information on POSCAR GeSe
 POSCAR found :  2 types and      72 ions
 Reading from existing POTCAR
 -----------------------------------------------------------------------------
|                                                                             |
|           W    W    AA    RRRRR   N    N  II  N    N   GGGG   !!!           |
|           W    W   A  A   R    R  NN   N  II  NN   N  G    G  !!!           |
|           W    W  A    A  R    R  N N  N  II  N N  N  G       !!!           |
|           W WW W  AAAAAA  RRRRR   N  N N  II  N  N N  G  GGG   !            |
|           WW  WW  A    A  R   R   N   NN  II  N   NN  G    G                |
|           W    W  A    A  R    R  N    N  II  N    N   GGGG   !!!           |
|                                                                             |
|     You use a magnetic or noncollinear calculation, but did not specify     |
|     the initial magnetic moment with the MAGMOM tag. Note that a            |
|     default of 1 will be used for all atoms. This ferromagnetic setup       |
|     may break the symmetry of the crystal, in particular it may rule        |
|     out finding an antiferromagnetic solution. Thence, we recommend         |
|     setting the initial magnetic moment manually or verifying carefully     |
|     that this magnetic setup is desired.                                    |
|                                                                             |
 -----------------------------------------------------------------------------

 scaLAPACK will be used
 Reading from existing POTCAR
 -----------------------------------------------------------------------------
|                                                                             |
|               ----> ADVICE to this user running VASP <----                  |
|                                                                             |
|     You have a (more or less) 'large supercell' and for larger cells it     |
|     might be more efficient to use real-space projection operators.         |
|     Therefore, try LREAL= Auto in the INCAR file.                           |
|     Mind: For very accurate calculation, you might also keep the            |
|     reciprocal projection scheme (i.e. LREAL=.FALSE.).                      |
|                                                                             |
 -----------------------------------------------------------------------------

 LDA part: xc-table for Pade appr. of Perdew
 -----------------------------------------------------------------------------
|                                                                             |
|           W    W    AA    RRRRR   N    N  II  N    N   GGGG   !!!           |
|           W    W   A  A   R    R  NN   N  II  NN   N  G    G  !!!           |
|           W    W  A    A  R    R  N N  N  II  N N  N  G       !!!           |
|           W WW W  AAAAAA  RRRRR   N  N N  II  N  N N  G  GGG   !            |
|           WW  WW  A    A  R   R   N   NN  II  N   NN  G    G                |
|           W    W  A    A  R    R  N    N  II  N    N   GGGG   !!!           |
|                                                                             |
|     The number of bands has been changed from the values supplied in        |
|     the INCAR file. This is a result of running the parallel version.       |
|     The orbitals not found in the WAVECAR file will be initialized with     |
|     random numbers, which is usually adequate. For correlated               |
|     calculations, however, you should redo the groundstate calculation.     |
|     I found NBANDS = 220. Now, NBANDS = 224.                                |
|                                                                             |
 -----------------------------------------------------------------------------

 POSCAR, INCAR and KPOINTS ok, starting setup
 FFT: planning ... GRIDC
 FFT: planning ... GRID_SOFT
 FFT: planning ... GRID
 WAVECAR not read
 WARNING: random wavefunctions but no delay for mixing, default for NELMDL
 entering main loop
       N       E                     dE             d eps       ncg     rms          rms(c)
DAV:   1     0.182418787969E+04    0.18242E+04   -0.14170E+05  7168   0.135E+03
DAV:   2    -0.641117139380E+02   -0.18883E+04   -0.18133E+04  8496   0.206E+02
DAV:   3    -0.281412112574E+03   -0.21730E+03   -0.21134E+03  8584   0.693E+01
DAV:   4    -0.289252960656E+03   -0.78408E+01   -0.77564E+01  8840   0.130E+01
DAV:   5    -0.289513665616E+03   -0.26070E+00   -0.25997E+00  9040   0.207E+00    0.294E+01
DAV:   6    -0.289236664958E+03    0.27700E+00   -0.26052E+01  7848   0.759E+00    0.175E+01
DAV:   7    -0.296702565203E+03   -0.74659E+01   -0.88147E+00  7976   0.458E+00    0.910E+00
DAV:   8    -0.299843071875E+03   -0.31405E+01   -0.17635E+00  8208   0.228E+00    0.324E+00
DAV:   9    -0.300189201073E+03   -0.34613E+00   -0.40525E-01  9016   0.101E+00    0.147E+00
DAV:  10    -0.300288752774E+03   -0.99552E-01   -0.91446E-02  8128   0.456E-01    0.726E-01
DAV:  11    -0.300319577198E+03   -0.30824E-01   -0.33789E-02  8832   0.278E-01    0.289E-01
DAV:  12    -0.300323231676E+03   -0.36545E-02   -0.47966E-03  8592   0.121E-01    0.106E-01
DAV:  13    -0.300323359693E+03   -0.12802E-03   -0.54541E-04  9728   0.367E-02    0.455E-02
DAV:  14    -0.300323377679E+03   -0.17987E-04   -0.98072E-05  8328   0.197E-02    0.167E-02
DAV:  15    -0.300323382018E+03   -0.43381E-05   -0.17106E-05  8536   0.978E-03    0.744E-03
DAV:  16    -0.300323382736E+03   -0.71808E-06   -0.15468E-06  4856   0.278E-03
   1 F= -.30032338E+03 E0= -.30032338E+03  d E =-.145201E-11  mag=     0.0004
