 vasp.6.4.2 20Jul23 (build Oct 12 2023 10:31:02) complex                         
 executed on              LinuxNV date 2024.11.01  23:18:33
 running  128 mpi-ranks, with    1 threads/rank, on    2 nodes
 distrk:  each k-point on   64 cores,    2 groups
 distr:  one band on NCORE=   8 cores,    8 groups


--------------------------------------------------------------------------------------------------------


 INCAR:
   ENCUT = 520.000000
   SIGMA = 0.050000
   EDIFF = 1.00e-06
   ALGO = N
   GGA = PE
   PREC = Accurate
   SYSTEM = 01_AOPT
   ICHARG = 0
   ISMEAR = 0
   ISPIN = 2
   ISTART = 1
   ISYM = -1
   KPAR = 2
   LORBIT = 11
   NBANDS = 220
   NELM = 100
   NELMIN = 5
   NPAR = 8
   LASPH = .TRUE.
   LCHARG = .FALSE.
   LWAVE = .FALSE.
   LREAL = .FALSE.

 POTCAR:    PAW_PBE Ge 05Jan2001                  
 POTCAR:    PAW_PBE Se 06Sep2000                  
 -----------------------------------------------------------------------------
|                                                                             |
|           W    W    AA    RRRRR   N    N  II  N    N   GGGG   !!!           |
|           W    W   A  A   R    R  NN   N  II  NN   N  G    G  !!!           |
|           W    W  A    A  R    R  N N  N  II  N N  N  G       !!!           |
|           W WW W  AAAAAA  RRRRR   N  N N  II  N  N N  G  GGG   !            |
|           WW  WW  A    A  R   R   N   NN  II  N   NN  G    G                |
|           W    W  A    A  R    R  N    N  II  N    N   GGGG   !!!           |
|                                                                             |
|     You use a magnetic or noncollinear calculation, but did not specify     |
|     the initial magnetic moment with the MAGMOM tag. Note that a            |
|     default of 1 will be used for all atoms. This ferromagnetic setup       |
|     may break the symmetry of the crystal, in particular it may rule        |
|     out finding an antiferromagnetic solution. Thence, we recommend         |
|     setting the initial magnetic moment manually or verifying carefully     |
|     that this magnetic setup is desired.                                    |
|                                                                             |
 -----------------------------------------------------------------------------

 POTCAR:    PAW_PBE Ge 05Jan2001                  
   VRHFIN =Ge: s2p2                                                                                 
   LEXCH  = PE                                                                                      
   EATOM  =   104.9960 eV,    7.7170 Ry                                                             
                                                                                                    
   TITEL  = PAW_PBE Ge 05Jan2001                                                                    
   LULTRA =        F    use ultrasoft PP ?                                                          
   IUNSCR =        1    unscreen: 0-lin 1-nonlin 2-no                                               
   RPACOR =    2.170    partial core radius                                                         
   POMASS =   72.610; ZVAL   =    4.000    mass and valenz                                          
   RCORE  =    2.300    outmost cutoff radius                                                       
   RWIGS  =    2.300; RWIGS  =    1.217    wigner-seitz radius (au A)                               
   ENMAX  =  173.807; ENMIN  =  130.355 eV                                                          
   ICORE  =        3    local potential                                                             
   LCOR   =        T    correct aug charges                                                         
   LPAW   =        T    paw PP                                                                      
   EAUG   =  385.843                                                                                
   DEXC   =    0.000                                                                                
   RMAX   =    2.342    core radius for proj-oper                                                   
   RAUG   =    1.300    factor for augmentation sphere                                              
   RDEP   =    2.318    radius for radial grids                                                     
   RDEPT  =    2.103    core radius for aug-charge                                                  
                                                                                                    
   Atomic configuration                                                                             
   10 entries                                                                                       
     n  l   j            E        occ.                                                              
     1  0  0.50    -10959.8463   2.0000                                                             
     2  0  0.50     -1371.6056   2.0000                                                             
     2  1  1.50     -1198.4791   6.0000                                                             
     3  0  0.50      -168.4733   2.0000                                                             
     3  1  1.50      -115.6019   6.0000                                                             
     3  2  2.50       -29.3106  10.0000                                                             
     4  0  0.50       -11.7309   2.0000                                                             
     4  1  0.50        -3.8952   2.0000                                                             
     4  2  1.50        -4.0817   0.0000                                                             
     4  3  2.50        -4.0817   0.0000                                                             
   Description                                                                                      
     l       E           TYP  RCUT    TYP  RCUT                                                     
     0    -11.7309493     23  2.300                                                                 
     0     -7.4578696     23  2.300                                                                 
     1     -3.8952261     23  2.300                                                                 
     1      6.1178114     23  2.300                                                                 
     2     -4.0817478     23  2.300                                                                 
     3     -1.3605826      7  2.300                                                                 
  local pseudopotential read in
  partial core-charges read in
  partial kinetic energy density read in
  atomic valenz-charges read in
  non local Contribution for L=            0  read in
    real space projection operators read in
  non local Contribution for L=            0  read in
    real space projection operators read in
  non local Contribution for L=            1  read in
    real space projection operators read in
  non local Contribution for L=            1  read in
    real space projection operators read in
  non local Contribution for L=            2  read in
    real space projection operators read in
    PAW grid and wavefunctions read in
 
   number of l-projection  operators is LMAX  =            5
   number of lm-projection operators is LMMAX =           13
 
 POTCAR:    PAW_PBE Se 06Sep2000                  
   VRHFIN =Se: s2p4                                                                                 
   LEXCH  = PE                                                                                      
   EATOM  =   257.1286 eV,   18.8984 Ry                                                             
                                                                                                    
   TITEL  = PAW_PBE Se 06Sep2000                                                                    
   LULTRA =        F    use ultrasoft PP ?                                                          
   IUNSCR =        1    unscreen: 0-lin 1-nonlin 2-no                                               
   RPACOR =    1.900    partial core radius                                                         
   POMASS =   78.960; ZVAL   =    6.000    mass and valenz                                          
   RCORE  =    2.100    outmost cutoff radius                                                       
   RWIGS  =    2.200; RWIGS  =    1.164    wigner-seitz radius (au A)                               
   ENMAX  =  211.555; ENMIN  =  158.666 eV                                                          
   ICORE  =        3    local potential                                                             
   LCOR   =        T    correct aug charges                                                         
   LPAW   =        T    paw PP                                                                      
   EAUG   =  446.842                                                                                
   DEXC   =    0.000                                                                                
   RMAX   =    2.147    core radius for proj-oper                                                   
   RAUG   =    1.300    factor for augmentation sphere                                              
   RDEP   =    2.177    radius for radial grids                                                     
   RDEPT  =    1.928    core radius for aug-charge                                                  
                                                                                                    
   Atomic configuration                                                                             
   10 entries                                                                                       
     n  l   j            E        occ.                                                              
     1  0  0.50    -12503.4787   2.0000                                                             
     2  0  0.50     -1606.9547   2.0000                                                             
     2  1  1.50     -1413.3140   6.0000                                                             
     3  0  0.50      -213.4885   2.0000                                                             
     3  1  1.50      -152.9538   6.0000                                                             
     3  2  2.50       -53.1221  10.0000                                                             
     4  0  0.50       -17.2865   2.0000                                                             
     4  1  0.50        -6.5110   4.0000                                                             
     4  2  2.50        -6.8029   0.0000                                                             
     4  3  2.50        -6.8029   0.0000                                                             
   Description                                                                                      
     l       E           TYP  RCUT    TYP  RCUT                                                     
     0    -17.2865377     23  2.100                                                                 
     0    -15.3094411     23  2.100                                                                 
     1     -6.5110275     23  2.100                                                                 
     1     -0.0695192     23  2.100                                                                 
     2     -6.8029130     23  2.100                                                                 
     3     -1.3605826      7  2.100                                                                 
  local pseudopotential read in
  partial core-charges read in
  partial kinetic energy density read in
  atomic valenz-charges read in
  non local Contribution for L=            0  read in
    real space projection operators read in
  non local Contribution for L=            0  read in
    real space projection operators read in
  non local Contribution for L=            1  read in
    real space projection operators read in
  non local Contribution for L=            1  read in
    real space projection operators read in
  non local Contribution for L=            2  read in
    real space projection operators read in
    PAW grid and wavefunctions read in
 
   number of l-projection  operators is LMAX  =            5
   number of lm-projection operators is LMMAX =           13
 
 -----------------------------------------------------------------------------
|                                                                             |
|               ----> ADVICE to this user running VASP <----                  |
|                                                                             |
|     You have a (more or less) 'large supercell' and for larger cells it     |
|     might be more efficient to use real-space projection operators.         |
|     Therefore, try LREAL= Auto in the INCAR file.                           |
|     Mind: For very accurate calculation, you might also keep the            |
|     reciprocal projection scheme (i.e. LREAL=.FALSE.).                      |
|                                                                             |
 -----------------------------------------------------------------------------

  PAW_PBE Ge 05Jan2001                  :
 energy of atom  1       EATOM= -104.9960
 kinetic energy error for atom=    0.0002 (will be added to EATOM!!)
  PAW_PBE Se 06Sep2000                  :
 energy of atom  2       EATOM= -257.1286
 kinetic energy error for atom=    0.0007 (will be added to EATOM!!)
 
 
 POSCAR: Ge Se
  positions in cartesian coordinates
  No initial velocities read in
 exchange correlation table for  LEXCH =        8
   RHO(1)=    0.500       N(1)  =     2000
   RHO(2)=  100.500       N(2)  =     4000
 


--------------------------------------------------------------------------------------------------------


 ion  position               nearest neighbor table
   1  0.074  0.047  0.123-  45 2.58  54 2.67  55 2.77
   2  0.231  0.881  0.369-  45 2.50  67 2.55  48 2.81
   3  0.559  0.200  0.374-  56 2.61  68 2.62  49 2.80
   4  0.562  0.549  0.376-  69 2.40  50 2.56  72 2.77
   5  0.570  0.882  0.379-  70 2.54  48 2.62  44 2.67
   6  0.878  0.202  0.362-  55 2.60  56 2.63
   7  0.912  0.533  0.388-  71 2.60  72 2.82
   8  0.883  0.881  0.400-  44 2.51  53 2.69
   9  0.079  0.159  0.615-  51 2.61  57 2.66
  10  0.088  0.500  0.633-  58 2.64  38 2.64  39 2.85
  11  0.076  0.814  0.629-  39 2.58  59 2.63  52 2.73
  12  0.389  0.144  0.627-  60 2.67  40 2.69  51 2.70
  13  0.420  0.506  0.626-  61 2.48  41 2.56
  14  0.416  0.839  0.645-  62 2.44  42 2.67
  15  0.749  0.154  0.636-  37 2.46  63 2.59
  16  0.729  0.482  0.621-  64 2.60  43 2.62  41 2.68
  17  0.238  0.553  0.379-  47 2.59  66 2.61  50 2.75
  18  0.231  0.222  0.383-  54 2.64  46 2.66  49 2.68
  19  0.750  0.817  0.623-  65 2.56  52 2.66  42 2.70
  20  0.905  0.646  0.886-  58 2.45  52 2.54  64 2.84
  21  0.912  0.977  0.873-  59 2.52  37 2.54  65 2.69
  22  0.090  0.376  0.114-  46 2.54  66 2.58  71 2.73
  23  0.069  0.702  0.123-  47 2.49  67 2.82
  24  0.413  0.053  0.138-  68 2.57  48 2.64  54 2.75
  25  0.379  0.353  0.111-  49 2.57  66 2.76  54 2.77
  26  0.747  0.048  0.117-  55 2.58  68 2.78  44 2.80
  27  0.721  0.391  0.139-  69 2.52  56 2.60
  28  0.419  0.707  0.143-  50 2.42  70 2.72  67 2.73
  29  0.247  0.323  0.875-  60 2.55  38 2.57  57 2.80
  30  0.241  0.649  0.869-  61 2.52  39 2.57  58 2.71
  31  0.231  0.998  0.880-  51 2.57  62 2.70  59 2.70
  32  0.582  0.329  0.874-  41 2.53  63 2.69
  33  0.581  0.654  0.872-  42 2.52  64 2.62  61 2.86
  34  0.561  0.974  0.887-  40 2.60  62 2.66  65 2.75
  35  0.903  0.315  0.871-  43 2.58  57 2.63  63 2.66
  36  0.749  0.701  0.130-  72 2.46  53 2.76  70 2.82
  37  0.894  0.020  0.649-  15 2.46  21 2.54
  38  0.239  0.352  0.644-  29 2.57  10 2.64
  39  0.231  0.678  0.638-  30 2.57  11 2.58  10 2.85
  40  0.560  0.016  0.656-  34 2.60  12 2.69
  41  0.558  0.354  0.648-  32 2.53  13 2.56  16 2.68
  42  0.573  0.693  0.648-  33 2.52  14 2.67  19 2.70
  43  0.896  0.356  0.642-  35 2.58  16 2.62
  44  0.737  0.017  0.369-   8 2.51   5 2.67  26 2.80
  45  0.087  0.019  0.354-   2 2.50   1 2.58
  46  0.065  0.349  0.340-  22 2.54  18 2.66
  47  0.085  0.690  0.347-  23 2.49  17 2.59
  48  0.409  0.018  0.373-   5 2.62  24 2.64   2 2.81
  49  0.397  0.354  0.342-  25 2.57  18 2.68   3 2.80
  50  0.412  0.689  0.361-  28 2.42   4 2.56  17 2.75
  51  0.222  0.008  0.648-  31 2.57   9 2.61  12 2.70
  52  0.908  0.677  0.658-  20 2.54  19 2.66  11 2.73
  53  0.903  0.858  0.159-   8 2.69  36 2.76
  54  0.237  0.185  0.148-  18 2.64   1 2.67  24 2.75  25 2.77
  55  0.900  0.187  0.128-  26 2.58   6 2.60   1 2.77
  56  0.716  0.338  0.367-  27 2.60   3 2.61   6 2.63
  57  0.070  0.186  0.855-  35 2.63   9 2.66  29 2.80
  58  0.060  0.527  0.868-  20 2.45  10 2.64  30 2.71
  59  0.071  0.853  0.863-  21 2.52  11 2.63  31 2.70
  60  0.396  0.183  0.865-  29 2.55  12 2.67
  61  0.396  0.521  0.848-  13 2.48  30 2.52  33 2.86
  62  0.389  0.851  0.863-  14 2.44  34 2.66  31 2.70
  63  0.738  0.180  0.869-  15 2.59  35 2.66  32 2.69
  64  0.729  0.504  0.855-  16 2.60  33 2.62  20 2.84
  65  0.740  0.848  0.852-  19 2.56  21 2.69  34 2.75
  66  0.237  0.520  0.146-  22 2.58  17 2.61  25 2.76
  67  0.246  0.842  0.143-   2 2.55  28 2.73  23 2.82
  68  0.572  0.185  0.138-  24 2.57   3 2.62  26 2.78
  69  0.565  0.519  0.161-   4 2.40  27 2.52
  70  0.582  0.852  0.152-   5 2.54  28 2.72  36 2.82
  71  0.923  0.512  0.154-   7 2.60  22 2.73
  72  0.741  0.678  0.351-  36 2.46   4 2.77   7 2.82
 

IMPORTANT INFORMATION: All symmetrisations will be switched off!
NOSYMM: (Re-)initialisation of all symmetry stuff for point group C_1.


----------------------------------------------------------------------------------------

                                     Primitive cell                                     

  volume of cell :    1715.6365

  direct lattice vectors                    reciprocal lattice vectors
    12.446296536 -0.000008154  0.000003066     0.080345185  0.000000053 -0.000000025
    -0.000008183 12.489391417  0.000000082     0.000000052  0.080067953 -0.000000001
     0.000003499  0.000000093 11.036817198    -0.000000022 -0.000000001  0.090605832

  length of vectors
    12.446296536 12.489391417 11.036817198     0.080345185  0.080067953  0.090605832

  position of ions in fractional coordinates (direct lattice)
     0.073871100  0.047363768  0.122951020
     0.230626469  0.880540910  0.369081654
     0.559164242  0.200172651  0.374005193
     0.561551667  0.549057513  0.375950207
     0.569720220  0.882385439  0.379144418
     0.877754670  0.202200907  0.361583974
     0.911588885  0.532620014  0.387788150
     0.883029144  0.880538488  0.399770687
     0.078914607  0.158971978  0.615457713
     0.088163623  0.499779697  0.632919767
     0.075924191  0.814300887  0.629042801
     0.389034276  0.144355964  0.626745333
     0.420288210  0.505878642  0.625611013
     0.415740643  0.838623727  0.644530985
     0.749408225  0.153749591  0.636343544
     0.729278858  0.481933797  0.620624829
     0.238107645  0.553072744  0.379026806
     0.231335490  0.221679493  0.383106986
     0.749571934  0.816517324  0.623042030
     0.904693337  0.645832586  0.885967103
     0.911519579  0.977123958  0.872840177
     0.090372114  0.376046308  0.113649717
     0.069333179  0.701605715  0.122714851
     0.413410499  0.053486666  0.137819630
     0.378872105  0.352671912  0.110778532
     0.746977268  0.047886103  0.117339803
     0.721013201  0.390989549  0.139415427
     0.418669452  0.707051962  0.143008395
     0.246959333  0.323053778  0.874589108
     0.240656922  0.649135660  0.868608850
     0.230675467  0.998426902  0.880324462
     0.581799329  0.329015091  0.873568333
     0.581417651  0.653838765  0.871569055
     0.561392150  0.974433813  0.886769761
     0.902662103  0.314945511  0.871016064
     0.749047375  0.701083526  0.130066237
     0.894190680  0.019682072  0.648745537
     0.239452438  0.351955701  0.643761195
     0.231232332  0.677534281  0.638035185
     0.560366366  0.016183555  0.656333024
     0.557642572  0.354087860  0.648145854
     0.572851637  0.692768807  0.647570318
     0.896067200  0.355678269  0.641693033
     0.736934332  0.016522840  0.368599782
     0.086550750  0.019206063  0.354231254
     0.064632784  0.348681307  0.339703000
     0.085034388  0.690354094  0.347399477
     0.409234122  0.018194439  0.373405936
     0.397144337  0.353650893  0.342414456
     0.411758981  0.688905569  0.361215464
     0.221595983  0.008151060  0.647944241
     0.907713251  0.676562237  0.658209995
     0.903137719  0.857965692  0.158576518
     0.236518201  0.185373835  0.147505623
     0.900248506  0.186654382  0.128113070
     0.716497243  0.338004030  0.367492363
     0.069609614  0.186444120  0.854551307
     0.060351592  0.527391816  0.867543973
     0.070956271  0.852892939  0.863003619
     0.396217890  0.183391057  0.864725428
     0.395759511  0.520958965  0.848360814
     0.388691696  0.851210199  0.862779292
     0.737702461  0.179536527  0.869128208
     0.728647422  0.504358136  0.854556099
     0.739725853  0.847962025  0.851825790
     0.236692312  0.519947232  0.145524579
     0.245802522  0.842195324  0.143019017
     0.572301989  0.185227096  0.138130936
     0.564915165  0.518550312  0.160837287
     0.582021356  0.851865994  0.152070604
     0.922570101  0.512225204  0.153883556
     0.741017145  0.677792302  0.351201931

  ion indices of the primitive-cell ions
   primitive index   ion index
                 1           1
                 2           2
                 3           3
                 4           4
                 5           5
                 6           6
                 7           7
                 8           8
                 9           9
                10          10
                11          11
                12          12
                13          13
                14          14
                15          15
                16          16
                17          17
                18          18
                19          19
                20          20
                21          21
                22          22
                23          23
                24          24
                25          25
                26          26
                27          27
                28          28
                29          29
                30          30
                31          31
                32          32
                33          33
                34          34
                35          35
                36          36
                37          37
                38          38
                39          39
                40          40
                41          41
                42          42
                43          43
                44          44
                45          45
                46          46
                47          47
                48          48
                49          49
                50          50
                51          51
                52          52
                53          53
                54          54
                55          55
                56          56
                57          57
                58          58
                59          59
                60          60
                61          61
                62          62
                63          63
                64          64
                65          65
                66          66
                67          67
                68          68
                69          69
                70          70
                71          71
                72          72

----------------------------------------------------------------------------------------

 
 
 KPOINTS: KPOINTS created by Atomic Simulation Env

Automatic generation of k-mesh.
 Grid dimensions read from file:
 generate k-points for:    2    2    2

 Generating k-lattice:

  Cartesian coordinates                     Fractional coordinates (reciprocal lattice)
     0.040172593  0.000000026 -0.000000013     0.500000000  0.000000000 -0.000000000
     0.000000026  0.040033976 -0.000000000    -0.000000000  0.500000000  0.000000000
    -0.000000011 -0.000000000  0.045302916    -0.000000000 -0.000000000  0.500000000

  Length of vectors
     0.040172593  0.040033976  0.045302916

  Shift w.r.t. Gamma in fractional coordinates (k-lattice)
     0.000000000  0.000000000  0.000000000

 
 Subroutine IBZKPT returns following result:
 ===========================================
 
 Found      8 irreducible k-points:
 
 Following reciprocal coordinates:
            Coordinates               Weight
  0.000000  0.000000  0.000000      1.000000
  0.500000  0.000000  0.000000      1.000000
  0.000000  0.500000  0.000000      1.000000
  0.500000  0.500000  0.000000      1.000000
  0.000000  0.000000  0.500000      1.000000
  0.500000  0.000000  0.500000      1.000000
  0.000000  0.500000  0.500000      1.000000
  0.500000  0.500000  0.500000      1.000000
 
 Following cartesian coordinates:
            Coordinates               Weight
  0.000000  0.000000  0.000000      1.000000
  0.040173  0.000000 -0.000000      1.000000
  0.000000  0.040034 -0.000000      1.000000
  0.040173  0.040034 -0.000000      1.000000
 -0.000000 -0.000000  0.045303      1.000000
  0.040173  0.000000  0.045303      1.000000
  0.000000  0.040034  0.045303      1.000000
  0.040173  0.040034  0.045303      1.000000
 
 -----------------------------------------------------------------------------
|                                                                             |
|           W    W    AA    RRRRR   N    N  II  N    N   GGGG   !!!           |
|           W    W   A  A   R    R  NN   N  II  NN   N  G    G  !!!           |
|           W    W  A    A  R    R  N N  N  II  N N  N  G       !!!           |
|           W WW W  AAAAAA  RRRRR   N  N N  II  N  N N  G  GGG   !            |
|           WW  WW  A    A  R   R   N   NN  II  N   NN  G    G                |
|           W    W  A    A  R    R  N    N  II  N    N   GGGG   !!!           |
|                                                                             |
|     The number of bands has been changed from the values supplied in        |
|     the INCAR file. This is a result of running the parallel version.       |
|     The orbitals not found in the WAVECAR file will be initialized with     |
|     random numbers, which is usually adequate. For correlated               |
|     calculations, however, you should redo the groundstate calculation.     |
|     I found NBANDS = 220. Now, NBANDS = 224.                                |
|                                                                             |
 -----------------------------------------------------------------------------



--------------------------------------------------------------------------------------------------------




 Dimension of arrays:
   k-points           NKPTS =      8   k-points in BZ     NKDIM =      8   number of bands    NBANDS=    224
   number of dos      NEDOS =    301   number of ions     NIONS =     72
   non local maximal  LDIM  =      5   non local SUM 2l+1 LMDIM =     13
   total plane-waves  NPLWV = 774144
   max r-space proj   IRMAX =      1   max aug-charges    IRDMAX=  24721
   dimension x,y,z NGX =    96 NGY =   96 NGZ =   84
   dimension x,y,z NGXF=   192 NGYF=  192 NGZF=  168
   support grid    NGXF=   192 NGYF=  192 NGZF=  168
   ions per type =              36  36
   NGX,Y,Z   is equivalent  to a cutoff of  12.82, 12.78, 12.65 a.u.
   NGXF,Y,Z  is equivalent  to a cutoff of  25.65, 25.56, 25.31 a.u.

 SYSTEM =  01_AOPT                                 
 POSCAR =  Ge Se                                   

 Startparameter for this run:
   NWRITE =      2    write-flag & timer
   PREC   = accura    normal or accurate (medium, high low for compatibility)
   ISTART =      0    job   : 0-new  1-cont  2-samecut
   ICHARG =      2    charge: 1-file 2-atom 10-const
   ISPIN  =      2    spin polarized calculation?
   LNONCOLLINEAR =      F non collinear calculations
   LSORBIT =      F    spin-orbit coupling
   INIWAV =      1    electr: 0-lowe 1-rand  2-diag
   LASPH  =      T    aspherical Exc in radial PAW
 Electronic Relaxation 1
   ENCUT  =  520.0 eV  38.22 Ry    6.18 a.u.  23.14 23.22 20.52*2*pi/ulx,y,z
   ENINI  =  520.0     initial cutoff
   ENAUG  =  446.8 eV  augmentation charge cutoff
   NELM   =    100;   NELMIN=  5; NELMDL=  0     # of ELM steps 
   EDIFF  = 0.1E-05   stopping-criterion for ELM
   LREAL  =      F    real-space projection
   NLSPLINE    = F    spline interpolate recip. space projectors
   LCOMPAT=      F    compatible to vasp.4.4
   GGA_COMPAT  = T    GGA compatible to vasp.4.4-vasp.4.6
   LMAXPAW     = -100 max onsite density
   LMAXMIX     =    2 max onsite mixed and CHGCAR
   VOSKOWN=      0    Vosko Wilk Nusair interpolation
   ROPT   =    0.00000   0.00000
 Ionic relaxation
   EDIFFG = 0.1E-04   stopping-criterion for IOM
   NSW    =      0    number of steps for IOM
   NBLOCK =      1;   KBLOCK =      1    inner block; outer block 
   IBRION =     -1    ionic relax: 0-MD 1-quasi-New 2-CG
   NFREE  =      0    steps in history (QN), initial steepest desc. (CG)
   ISIF   =      2    stress and relaxation
   IWAVPR =     10    prediction:  0-non 1-charg 2-wave 3-comb
   ISYM   =     -1    0-nonsym 1-usesym 2-fastsym
   LCORR  =      T    Harris-Foulkes like correction to forces

   POTIM  = 0.5000    time-step for ionic-motion
   TEIN   =    0.0    initial temperature
   TEBEG  =    0.0;   TEEND  =   0.0 temperature during run
   SMASS  =  -3.00    Nose mass-parameter (am)
   estimated Nose-frequenzy (Omega)   =  0.10E-29 period in steps = 0.13E+47 mass=  -0.354E-26a.u.
   SCALEE = 1.0000    scale energy and forces
   NPACO  =    256;   APACO  = 10.0  distance and # of slots for P.C.
   PSTRESS=    0.0 pullay stress

  Mass of Ions in am
   POMASS =  72.61 78.96
  Ionic Valenz
   ZVAL   =   4.00  6.00
  Atomic Wigner-Seitz radii
   RWIGS  =  -1.00 -1.00
  virtual crystal weights 
   VCA    =   1.00  1.00
   NELECT =     360.0000    total number of electrons
   NUPDOWN=      -1.0000    fix difference up-down

 DOS related values:
   EMIN   =  10.00;   EMAX   =-10.00  energy-range for DOS
   EFERMI =   0.00;   METHOD = LEGACY      
   ISMEAR =     0;   SIGMA  =   0.05  broadening in eV -4-tet -1-fermi 0-gaus

 Electronic relaxation 2 (details)
   IALGO  =     38    algorithm
   LDIAG  =      T    sub-space diagonalisation (order eigenvalues)
   LSUBROT=      F    optimize rotation matrix (better conditioning)
   TURBO    =      0    0=normal 1=particle mesh
   IRESTART =      0    0=no restart 2=restart with 2 vectors
   NREBOOT  =      0    no. of reboots
   NMIN     =      0    reboot dimension
   EREF     =   0.00    reference energy to select bands
   IMIX   =      4    mixing-type and parameters
     AMIX     =   0.40;   BMIX     =  1.00
     AMIX_MAG =   1.60;   BMIX_MAG =  1.00
     AMIN     =   0.10
     WC   =   100.;   INIMIX=   1;  MIXPRE=   1;  MAXMIX= -45

 Intra band minimization:
   WEIMIN = 0.0000     energy-eigenvalue tresh-hold
   EBREAK =  0.11E-08  absolut break condition
   DEPER  =   0.30     relativ break condition  

   TIME   =   0.40     timestep for ELM

  volume/ion in A,a.u.               =      23.83       160.80
  Fermi-wavevector in a.u.,A,eV,Ry     =   0.972823  1.838369 12.876349  0.946385
  Thomas-Fermi vector in A             =   2.103153
 
 Write flags
   LWAVE        =      F    write WAVECAR
   LDOWNSAMPLE  =      F    k-point downsampling of WAVECAR
   LCHARG       =      F    write CHGCAR
   LVTOT        =      F    write LOCPOT, total local potential
   LVHAR        =      F    write LOCPOT, Hartree potential only
   LELF         =      F    write electronic localiz. function (ELF)
   LORBIT       =     11    0 simple, 1 ext, 2 COOP (PROOUT), +10 PAW based schemes


 Dipole corrections
   LMONO  =      F    monopole corrections only (constant potential shift)
   LDIPOL =      F    correct potential (dipole corrections)
   IDIPOL =      0    1-x, 2-y, 3-z, 4-all directions 
   EPSILON=  1.0000000 bulk dielectric constant

 Exchange correlation treatment:
   GGA     =    PE    GGA type
   LEXCH   =     8    internal setting for exchange type
   LIBXC   =     F    Libxc                    
   VOSKOWN =     0    Vosko Wilk Nusair interpolation
   LHFCALC =     F    Hartree Fock is set to
   LHFONE  =     F    Hartree Fock one center treatment
   AEXX    =    0.0000 exact exchange contribution

 Linear response parameters
   LEPSILON=     F    determine dielectric tensor
   LRPA    =     F    only Hartree local field effects (RPA)
   LNABLA  =     F    use nabla operator in PAW spheres
   LVEL    =     F    velocity operator in full k-point grid
   CSHIFT  =0.1000    complex shift for real part using Kramers Kronig
   OMEGAMAX=  -1.0    maximum frequency
   DEG_THRESHOLD= 0.2000000E-02 threshold for treating states as degnerate
   RTIME   =   -0.100 relaxation time in fs
  (WPLASMAI=    0.000 imaginary part of plasma frequency in eV, 0.658/RTIME)
   DFIELD  = 0.0000000 0.0000000 0.0000000 field for delta impulse in time
 
  Optional k-point grid parameters
   LKPOINTS_OPT  =     F    use optional k-point grid
   KPOINTS_OPT_MODE=     1    mode for optional k-point grid
 
 Orbital magnetization related:
   ORBITALMAG=     F  switch on orbital magnetization
   LCHIMAG   =     F  perturbation theory with respect to B field
   DQ        =  0.001000  dq finite difference perturbation B field
   LLRAUG    =     F  two centre corrections for induced B field
   LBONE     =     F  B-component reconstruction in AE one-centre
   LVGVCALC  =     T  calculate vGv susceptibility
   LVGVAPPL  =     F  apply vGv susceptibility instead of pGv for G=0

 Random number generation:
   RANDOM_GENERATOR = DEFAULT
   PCG_SEED         = not used


--------------------------------------------------------------------------------------------------------


 Static calculation
 charge density and potential will be updated during run
 spin polarized calculation
 Variant of blocked Davidson
 Davidson routine will perform the subspace rotation
 perform sub-space diagonalisation
    after iterative eigenvector-optimisation
 modified Broyden-mixing scheme, WC =      100.0
 initial mixing is a Kerker type mixing with AMIX =  0.4000 and BMIX =      1.0000
 Hartree-type preconditioning will be used
 using additional bands            44
 reciprocal scheme for non local part
 use partial core corrections
 calculate Harris-corrections to forces 
   (improved forces if not selfconsistent)
 use gradient corrections 
 use of overlap-Matrix (Vanderbilt PP)
 Gauss-broadening in eV      SIGMA  =   0.05


--------------------------------------------------------------------------------------------------------


  energy-cutoff  :      520.00
  volume of cell :     1715.64
      direct lattice vectors                 reciprocal lattice vectors
    12.446296536 -0.000008154  0.000003066     0.080345185  0.000000053 -0.000000025
    -0.000008183 12.489391417  0.000000082     0.000000052  0.080067953 -0.000000001
     0.000003499  0.000000093 11.036817198    -0.000000022 -0.000000001  0.090605832

  length of vectors
    12.446296536 12.489391417 11.036817198     0.080345185  0.080067953  0.090605832


 
 k-points in units of 2pi/SCALE and weight: KPOINTS created by Atomic Simulation Env
   0.00000000  0.00000000  0.00000000       0.125
   0.04017259  0.00000003 -0.00000001       0.125
   0.00000003  0.04003398 -0.00000000       0.125
   0.04017262  0.04003400 -0.00000001       0.125
  -0.00000001 -0.00000000  0.04530292       0.125
   0.04017258  0.00000003  0.04530290       0.125
   0.00000002  0.04003398  0.04530292       0.125
   0.04017261  0.04003400  0.04530290       0.125
 
 k-points in reciprocal lattice and weights: KPOINTS created by Atomic Simulation Env
   0.00000000  0.00000000  0.00000000       0.125
   0.50000000  0.00000000  0.00000000       0.125
   0.00000000  0.50000000  0.00000000       0.125
   0.50000000  0.50000000  0.00000000       0.125
   0.00000000  0.00000000  0.50000000       0.125
   0.50000000  0.00000000  0.50000000       0.125
   0.00000000  0.50000000  0.50000000       0.125
   0.50000000  0.50000000  0.50000000       0.125
 
 position of ions in fractional coordinates (direct lattice) 
   0.07387110  0.04736377  0.12295102
   0.23062647  0.88054091  0.36908165
   0.55916424  0.20017265  0.37400519
   0.56155167  0.54905751  0.37595021
   0.56972022  0.88238544  0.37914442
   0.87775467  0.20220091  0.36158397
   0.91158889  0.53262001  0.38778815
   0.88302914  0.88053849  0.39977069
   0.07891461  0.15897198  0.61545771
   0.08816362  0.49977970  0.63291977
   0.07592419  0.81430089  0.62904280
   0.38903428  0.14435596  0.62674533
   0.42028821  0.50587864  0.62561101
   0.41574064  0.83862373  0.64453098
   0.74940822  0.15374959  0.63634354
   0.72927886  0.48193380  0.62062483
   0.23810765  0.55307274  0.37902681
   0.23133549  0.22167949  0.38310699
   0.74957193  0.81651732  0.62304203
   0.90469334  0.64583259  0.88596710
   0.91151958  0.97712396  0.87284018
   0.09037211  0.37604631  0.11364972
   0.06933318  0.70160572  0.12271485
   0.41341050  0.05348667  0.13781963
   0.37887210  0.35267191  0.11077853
   0.74697727  0.04788610  0.11733980
   0.72101320  0.39098955  0.13941543
   0.41866945  0.70705196  0.14300840
   0.24695933  0.32305378  0.87458911
   0.24065692  0.64913566  0.86860885
   0.23067547  0.99842690  0.88032446
   0.58179933  0.32901509  0.87356833
   0.58141765  0.65383876  0.87156906
   0.56139215  0.97443381  0.88676976
   0.90266210  0.31494551  0.87101606
   0.74904737  0.70108353  0.13006624
   0.89419068  0.01968207  0.64874554
   0.23945244  0.35195570  0.64376119
   0.23123233  0.67753428  0.63803519
   0.56036637  0.01618356  0.65633302
   0.55764257  0.35408786  0.64814585
   0.57285164  0.69276881  0.64757032
   0.89606720  0.35567827  0.64169303
   0.73693433  0.01652284  0.36859978
   0.08655075  0.01920606  0.35423125
   0.06463278  0.34868131  0.33970300
   0.08503439  0.69035409  0.34739948
   0.40923412  0.01819444  0.37340594
   0.39714434  0.35365089  0.34241446
   0.41175898  0.68890557  0.36121546
   0.22159598  0.00815106  0.64794424
   0.90771325  0.67656224  0.65821000
   0.90313772  0.85796569  0.15857652
   0.23651820  0.18537384  0.14750562
   0.90024851  0.18665438  0.12811307
   0.71649724  0.33800403  0.36749236
   0.06960961  0.18644412  0.85455131
   0.06035159  0.52739182  0.86754397
   0.07095627  0.85289294  0.86300362
   0.39621789  0.18339106  0.86472543
   0.39575951  0.52095896  0.84836081
   0.38869170  0.85121020  0.86277929
   0.73770246  0.17953653  0.86912821
   0.72864742  0.50435814  0.85455610
   0.73972585  0.84796203  0.85182579
   0.23669231  0.51994723  0.14552458
   0.24580252  0.84219532  0.14301902
   0.57230199  0.18522710  0.13813094
   0.56491517  0.51855031  0.16083729
   0.58202136  0.85186599  0.15207060
   0.92257010  0.51222520  0.15388356
   0.74101715  0.67779230  0.35120193
 
 position of ions in cartesian coordinates  (Angst):
   0.91942166  0.59154405  1.35698817
   2.87043950 10.99741823  4.07348752
   6.95952363  2.50003006  4.12782868
   6.98923539  6.85738964  4.14929548
   7.09090090 11.02045252  4.18454945
  10.92479452  2.52535915  3.99073893
  11.34590259  6.65209243  4.27994976
  10.99043677 10.99738267  4.41219877
   0.98219545  1.98546267  6.79269452
   1.09730872  6.24194359  6.98542008
   0.94497053 10.17012195  6.94263071
   4.84203697  1.80291502  6.91727487
   5.23102974  6.31811299  6.90475571
   5.17442671 10.47389664  7.11357200
   9.32735796  1.92023277  7.02320968
   9.07681915  6.01905394  6.84972506
   2.96355516  6.90754008  4.18325034
   2.87926963  2.76864011  4.22828250
   9.32939006 10.19779841  6.87640335
  11.26007937  8.06604866  9.77825978
  11.34503804 12.20367622  9.63338035
   1.12479545  4.69658881  1.25433146
   0.86293599  8.76262784  1.35438165
   5.14542970  0.66801255  1.52109133
   4.71555206  4.40465447  1.22264360
   9.29710060  0.59806220  1.29506025
   8.97394140  4.88321565  1.53870482
   5.21087886  8.83064530  1.57835886
   3.07372951  4.03474314  9.65268090
   2.99528514  8.10730746  9.58667788
   2.87105018 12.46974258  9.71598095
   7.24124734  4.10919359  9.64141581
   7.23649420  8.16604360  9.61935017
   6.98724831 12.17008081  9.78711755
  11.23480068  3.93347048  9.61324787
   9.32286046  8.75610048  1.43551964
  11.12936447  0.24580987  7.16008864
   2.98029542  4.39571062  7.10507539
   2.87798286  8.46198901  7.04187847
   6.97448812  0.20211825  7.24382932
   6.94058419  4.42233739  7.15346905
   7.12987794  8.65225618  7.14711704
  11.15271742  4.44219787  7.08225148
   9.17210438  0.20635424  4.06817068
   1.07723738  0.23987136  3.90958587
   0.80443714  4.35481683  3.74924014
   1.05835878  8.62210184  3.83418484
   5.09345040  0.22723417  4.12121432
   4.94297449  4.41688122  3.77916701
   5.12487001  8.60400797  3.98667036
   2.75805151  0.10180003  7.15124282
  11.29766505  8.44984326  7.26454623
  11.24071340 10.71546200  1.75018288
   2.94377466  2.31520447  1.62799334
  11.20475879  2.33119231  1.41396331
   8.91773567  4.22145883  4.05594825
   0.86638336  2.32857311  9.43152679
   0.75115253  6.58680241  9.57492447
   0.88313883 10.65211326  9.52481347
   4.93144688  2.29043955  9.54381771
   4.92573893  6.50645727  9.36320448
   4.83776816 10.63109427  9.52233859
   9.18166515  2.24229603  9.59241143
   9.06896075  6.29912031  9.43158172
   9.20684336 10.59052369  9.40144786
   2.94593896  6.49382258  1.60612894
   3.05932469 10.51850506  1.57847557
   7.12303924  2.31336904  1.52452766
   7.03109799  6.47637322  1.77513351
   7.24400395 10.63928311  1.67837731
  11.48257740  6.39737356  1.69838755
   9.22291481  8.46520734  3.87615384
 


--------------------------------------------------------------------------------------------------------


 k-point   1 :   0.0000 0.0000 0.0000  plane waves:   46141
 k-point   2 :   0.5000 0.0000 0.0000  plane waves:   46218
 k-point   3 :   0.0000 0.5000 0.0000  plane waves:   46202
 k-point   4 :   0.5000 0.5000 0.0000  plane waves:   46324
 k-point   5 :   0.0000 0.0000 0.5000  plane waves:   46178
 k-point   6 :   0.5000 0.0000 0.5000  plane waves:   46168
 k-point   7 :   0.0000 0.5000 0.5000  plane waves:   46198
 k-point   8 :   0.5000 0.5000 0.5000  plane waves:   46168

 maximum and minimum number of plane-waves per node :      5840     5722

 maximum number of plane-waves:     46324
 maximum index in each direction: 
   IXMAX=   23   IYMAX=   23   IZMAX=   20
   IXMIN=  -23   IYMIN=  -23   IZMIN=  -21


 parallel 3D FFT for wavefunctions:
    minimum data exchange during FFTs selected (reduces bandwidth)
 parallel 3D FFT for charge:
    minimum data exchange during FFTs selected (reduces bandwidth)


 total amount of memory used by VASP MPI-rank0   110844. kBytes
=======================================================================

   base      :      30000. kBytes
   nonl-proj :      16377. kBytes
   fftplans  :       6179. kBytes
   grid      :      15593. kBytes
   one-center:        146. kBytes
   wavefun   :      42549. kBytes
 
     INWAV:  cpu time      0.0000: real time      0.0001
 Broyden mixing: mesh for mixing (old mesh)
   NGX = 47   NGY = 47   NGZ = 41
  (NGX  =192   NGY  =192   NGZ  =168)
  gives a total of  90569 points

 initial charge density was supplied:
 charge density of overlapping atoms calculated
 number of electron     360.0000000 magnetization      72.0000000
 keeping initial charge density in first step


--------------------------------------------------------------------------------------------------------


 Maximum index for augmentation-charges           756 (set IRDMAX)


--------------------------------------------------------------------------------------------------------


 First call to EWALD:  gamma=   0.148
 Maximum number of real-space cells 3x 3x 3
 Maximum number of reciprocal cells 3x 3x 3

    FEWALD:  cpu time      0.0032: real time      0.0032


--------------------------------------- Ionic step        1  -------------------------------------------




--------------------------------------- Iteration      1(   1)  ---------------------------------------


    POTLOK:  cpu time      0.1402: real time      0.1411
    SETDIJ:  cpu time      0.5940: real time      0.5958
     EDDAV:  cpu time      8.6154: real time      8.6709
       DOS:  cpu time      0.0019: real time      0.0020
    --------------------------------------------
      LOOP:  cpu time      9.3515: real time      9.4097

 eigenvalue-minimisations  :  7168
 total energy-change (2. order) : 0.1807408E+04  (-0.1419057E+05)
 number of electron     360.0000000 magnetization      72.0000000
 augmentation part      360.0000000 magnetization      72.0000000

 Free energy of the ion-electron system (eV)
  ---------------------------------------------------
  alpha Z        PSCENC =       799.99469797
  Ewald energy   TEWEN  =    -12915.64817519
  -Hartree energ DENC   =     -1081.00505121
  -exchange      EXHF   =         0.00000000
  -V(xc)+E(xc)   XCENC  =      -294.03295512
  PAW double counting   =     10738.42099860    -9719.93139476
  entropy T*S    EENTRO =        -0.02326224
  eigenvalues    EBANDS =      1243.18194675
  atomic energy  EATOM  =     13036.45147835
  Solvation  Ediel_sol  =         0.00000000
  ---------------------------------------------------
  free energy    TOTEN  =      1807.40828315 eV

  energy without entropy =     1807.43154540  energy(sigma->0) =     1807.41991427


--------------------------------------------------------------------------------------------------------




--------------------------------------- Iteration      1(   2)  ---------------------------------------


     EDDAV:  cpu time      9.7797: real time      9.8300
       DOS:  cpu time      0.0014: real time      0.0014
    --------------------------------------------
      LOOP:  cpu time      9.7811: real time      9.8314

 eigenvalue-minimisations  :  8488
 total energy-change (2. order) :-0.1872233E+04  (-0.1796864E+04)
 number of electron     360.0000000 magnetization      72.0000000
 augmentation part      360.0000000 magnetization      72.0000000

 Free energy of the ion-electron system (eV)
  ---------------------------------------------------
  alpha Z        PSCENC =       799.99469797
  Ewald energy   TEWEN  =    -12915.64817519
  -Hartree energ DENC   =     -1081.00505121
  -exchange      EXHF   =         0.00000000
  -V(xc)+E(xc)   XCENC  =      -294.03295512
  PAW double counting   =     10738.42099860    -9719.93139476
  entropy T*S    EENTRO =        -0.01860376
  eigenvalues    EBANDS =      -629.05606887
  atomic energy  EATOM  =     13036.45147835
  Solvation  Ediel_sol  =         0.00000000
  ---------------------------------------------------
  free energy    TOTEN  =       -64.82507399 eV

  energy without entropy =      -64.80647022  energy(sigma->0) =      -64.81577211


--------------------------------------------------------------------------------------------------------




--------------------------------------- Iteration      1(   3)  ---------------------------------------


     EDDAV:  cpu time      9.8776: real time      9.9362
       DOS:  cpu time      0.0013: real time      0.0013
    --------------------------------------------
      LOOP:  cpu time      9.8789: real time      9.9375

 eigenvalue-minimisations  :  8584
 total energy-change (2. order) :-0.2169571E+03  (-0.2108156E+03)
 number of electron     360.0000000 magnetization      72.0000000
 augmentation part      360.0000000 magnetization      72.0000000

 Free energy of the ion-electron system (eV)
  ---------------------------------------------------
  alpha Z        PSCENC =       799.99469797
  Ewald energy   TEWEN  =    -12915.64817519
  -Hartree energ DENC   =     -1081.00505121
  -exchange      EXHF   =         0.00000000
  -V(xc)+E(xc)   XCENC  =      -294.03295512
  PAW double counting   =     10738.42099860    -9719.93139476
  entropy T*S    EENTRO =        -0.00099989
  eigenvalues    EBANDS =      -846.03073209
  atomic energy  EATOM  =     13036.45147835
  Solvation  Ediel_sol  =         0.00000000
  ---------------------------------------------------
  free energy    TOTEN  =      -281.78213333 eV

  energy without entropy =     -281.78113344  energy(sigma->0) =     -281.78163339


--------------------------------------------------------------------------------------------------------




--------------------------------------- Iteration      1(   4)  ---------------------------------------


     EDDAV:  cpu time      9.9301: real time      9.9798
       DOS:  cpu time      0.0011: real time      0.0011
    --------------------------------------------
      LOOP:  cpu time      9.9312: real time      9.9809

 eigenvalue-minimisations  :  8736
 total energy-change (2. order) :-0.7855309E+01  (-0.7765246E+01)
 number of electron     360.0000000 magnetization      72.0000000
 augmentation part      360.0000000 magnetization      72.0000000

 Free energy of the ion-electron system (eV)
  ---------------------------------------------------
  alpha Z        PSCENC =       799.99469797
  Ewald energy   TEWEN  =    -12915.64817519
  -Hartree energ DENC   =     -1081.00505121
  -exchange      EXHF   =         0.00000000
  -V(xc)+E(xc)   XCENC  =      -294.03295512
  PAW double counting   =     10738.42099860    -9719.93139476
  entropy T*S    EENTRO =        -0.00007610
  eigenvalues    EBANDS =      -853.88696512
  atomic energy  EATOM  =     13036.45147835
  Solvation  Ediel_sol  =         0.00000000
  ---------------------------------------------------
  free energy    TOTEN  =      -289.63744257 eV

  energy without entropy =     -289.63736647  energy(sigma->0) =     -289.63740452


--------------------------------------------------------------------------------------------------------




--------------------------------------- Iteration      1(   5)  ---------------------------------------


     EDDAV:  cpu time     10.3094: real time     10.3612
       DOS:  cpu time      0.0013: real time      0.0013
    CHARGE:  cpu time      0.4205: real time      0.4225
    MIXING:  cpu time      0.0073: real time      0.0074
    --------------------------------------------
      LOOP:  cpu time     10.7386: real time     10.7924

 eigenvalue-minimisations  :  9096
 total energy-change (2. order) :-0.2998047E+00  (-0.2989811E+00)
 number of electron     359.9999994 magnetization      48.7328464
 augmentation part      -66.7938909 magnetization      48.9462437

 Broyden mixing:
  rms(total) = 0.28887E+01    rms(broyden)= 0.28887E+01
  rms(prec ) = 0.30505E+01
  weight for this iteration     100.00

 Free energy of the ion-electron system (eV)
  ---------------------------------------------------
  alpha Z        PSCENC =       799.99469797
  Ewald energy   TEWEN  =    -12915.64817519
  -Hartree energ DENC   =     -1081.00505121
  -exchange      EXHF   =         0.00000000
  -V(xc)+E(xc)   XCENC  =      -294.03295512
  PAW double counting   =     10738.42099860    -9719.93139476
  entropy T*S    EENTRO =        -0.00006744
  eigenvalues    EBANDS =      -854.18677845
  atomic energy  EATOM  =     13036.45147835
  Solvation  Ediel_sol  =         0.00000000
  ---------------------------------------------------
  free energy    TOTEN  =      -289.93724725 eV

  energy without entropy =     -289.93717981  energy(sigma->0) =     -289.93721353


--------------------------------------------------------------------------------------------------------




--------------------------------------- Iteration      1(   6)  ---------------------------------------


    POTLOK:  cpu time      0.1348: real time      0.1368
    SETDIJ:  cpu time      0.5969: real time      0.5992
     EDDAV:  cpu time      9.2098: real time      9.2525
       DOS:  cpu time      0.0011: real time      0.0011
    CHARGE:  cpu time      0.4204: real time      0.4219
    MIXING:  cpu time      0.0072: real time      0.0073
    --------------------------------------------
      LOOP:  cpu time     10.3701: real time     10.4186

 eigenvalue-minimisations  :  7936
 total energy-change (2. order) : 0.6263227E+00  (-0.2738184E+01)
 number of electron     359.9999994 magnetization      27.9840686
 augmentation part      -66.1771881 magnetization      29.1695221

 Broyden mixing:
  rms(total) = 0.17053E+01    rms(broyden)= 0.17053E+01
  rms(prec ) = 0.17419E+01
  weight for this iteration     100.00

 eigenvalues of (default mixing * dielectric matrix)
  average eigenvalue GAMMA=   1.0041
  1.0041

 Free energy of the ion-electron system (eV)
  ---------------------------------------------------
  alpha Z        PSCENC =       799.99469797
  Ewald energy   TEWEN  =    -12915.64817519
  -Hartree energ DENC   =     -1134.76665766
  -exchange      EXHF   =         0.00000000
  -V(xc)+E(xc)   XCENC  =      -287.65938655
  PAW double counting   =     12966.38206183   -11951.35267730
  entropy T*S    EENTRO =        -0.00015606
  eigenvalues    EBANDS =      -802.71210989
  atomic energy  EATOM  =     13036.45147835
  Solvation  Ediel_sol  =         0.00000000
  ---------------------------------------------------
  free energy    TOTEN  =      -289.31092450 eV

  energy without entropy =     -289.31076844  energy(sigma->0) =     -289.31084647


--------------------------------------------------------------------------------------------------------




--------------------------------------- Iteration      1(   7)  ---------------------------------------


    POTLOK:  cpu time      0.1312: real time      0.1319
    SETDIJ:  cpu time      0.5984: real time      0.6001
     EDDAV:  cpu time      9.3831: real time      9.4300
       DOS:  cpu time      0.0010: real time      0.0010
    CHARGE:  cpu time      0.4207: real time      0.4225
    MIXING:  cpu time      0.0074: real time      0.0074
    --------------------------------------------
      LOOP:  cpu time     10.5418: real time     10.5928

 eigenvalue-minimisations  :  8048
 total energy-change (2. order) :-0.7340559E+01  (-0.8579923E+00)
 number of electron     359.9999994 magnetization       9.2345500
 augmentation part      -66.1773750 magnetization       9.9100581

 Broyden mixing:
  rms(total) = 0.90394E+00    rms(broyden)= 0.90394E+00
  rms(prec ) = 0.91972E+00
  weight for this iteration     100.00

 eigenvalues of (default mixing * dielectric matrix)
  average eigenvalue GAMMA=   1.4495
  0.8628  2.0361

 Free energy of the ion-electron system (eV)
  ---------------------------------------------------
  alpha Z        PSCENC =       799.99469797
  Ewald energy   TEWEN  =    -12915.64817519
  -Hartree energ DENC   =     -1150.55533359
  -exchange      EXHF   =         0.00000000
  -V(xc)+E(xc)   XCENC  =      -290.61456357
  PAW double counting   =     14983.44011437   -13969.96697635
  entropy T*S    EENTRO =        -0.00000012
  eigenvalues    EBANDS =      -789.75272515
  atomic energy  EATOM  =     13036.45147835
  Solvation  Ediel_sol  =         0.00000000
  ---------------------------------------------------
  free energy    TOTEN  =      -296.65148327 eV

  energy without entropy =     -296.65148315  energy(sigma->0) =     -296.65148321


--------------------------------------------------------------------------------------------------------




--------------------------------------- Iteration      1(   8)  ---------------------------------------


    POTLOK:  cpu time      0.1308: real time      0.1315
    SETDIJ:  cpu time      0.5962: real time      0.5988
     EDDAV:  cpu time      9.4445: real time      9.5152
       DOS:  cpu time      0.0010: real time      0.0010
    CHARGE:  cpu time      0.4187: real time      0.4204
    MIXING:  cpu time      0.0078: real time      0.0078
    --------------------------------------------
      LOOP:  cpu time     10.5989: real time     10.6747

 eigenvalue-minimisations  :  8128
 total energy-change (2. order) :-0.3261397E+01  (-0.1742331E+00)
 number of electron     359.9999994 magnetization       4.2246416
 augmentation part      -66.2004091 magnetization       4.5306033

 Broyden mixing:
  rms(total) = 0.32436E+00    rms(broyden)= 0.32436E+00
  rms(prec ) = 0.32951E+00
  weight for this iteration     100.00

 eigenvalues of (default mixing * dielectric matrix)
  average eigenvalue GAMMA=   1.3657
  2.5056  0.9290  0.6624

 Free energy of the ion-electron system (eV)
  ---------------------------------------------------
  alpha Z        PSCENC =       799.99469797
  Ewald energy   TEWEN  =    -12915.64817519
  -Hartree energ DENC   =     -1153.94098197
  -exchange      EXHF   =         0.00000000
  -V(xc)+E(xc)   XCENC  =      -290.40899079
  PAW double counting   =     16706.16075603   -15693.56478595
  entropy T*S    EENTRO =        -0.00000000
  eigenvalues    EBANDS =      -788.95687854
  atomic energy  EATOM  =     13036.45147835
  Solvation  Ediel_sol  =         0.00000000
  ---------------------------------------------------
  free energy    TOTEN  =      -299.91288008 eV

  energy without entropy =     -299.91288008  energy(sigma->0) =     -299.91288008


--------------------------------------------------------------------------------------------------------




--------------------------------------- Iteration      1(   9)  ---------------------------------------


    POTLOK:  cpu time      0.1305: real time      0.1312
    SETDIJ:  cpu time      0.5972: real time      0.5988
     EDDAV:  cpu time     10.2321: real time     10.2814
       DOS:  cpu time      0.0007: real time      0.0007
    CHARGE:  cpu time      0.4154: real time      0.4169
    MIXING:  cpu time      0.0089: real time      0.0089
    --------------------------------------------
      LOOP:  cpu time     11.3848: real time     11.4379

 eigenvalue-minimisations  :  9040
 total energy-change (2. order) :-0.3904565E+00  (-0.4401994E-01)
 number of electron     359.9999994 magnetization       2.2119382
 augmentation part      -66.2409871 magnetization       2.3602077

 Broyden mixing:
  rms(total) = 0.14499E+00    rms(broyden)= 0.14499E+00
  rms(prec ) = 0.14662E+00
  weight for this iteration     100.00

 eigenvalues of (default mixing * dielectric matrix)
  average eigenvalue GAMMA=   1.3335
  2.6369  1.2378  0.8369  0.6225

 Free energy of the ion-electron system (eV)
  ---------------------------------------------------
  alpha Z        PSCENC =       799.99469797
  Ewald energy   TEWEN  =    -12915.64817519
  -Hartree energ DENC   =     -1152.80865289
  -exchange      EXHF   =         0.00000000
  -V(xc)+E(xc)   XCENC  =      -290.45263642
  PAW double counting   =     16998.62309260   -15986.36600524
  entropy T*S    EENTRO =        -0.00000000
  eigenvalues    EBANDS =      -790.09713574
  atomic energy  EATOM  =     13036.45147835
  Solvation  Ediel_sol  =         0.00000000
  ---------------------------------------------------
  free energy    TOTEN  =      -300.30333655 eV

  energy without entropy =     -300.30333655  energy(sigma->0) =     -300.30333655


--------------------------------------------------------------------------------------------------------




--------------------------------------- Iteration      1(  10)  ---------------------------------------


    POTLOK:  cpu time      0.1310: real time      0.1317
    SETDIJ:  cpu time      0.5964: real time      0.5982
     EDDAV:  cpu time      9.4628: real time      9.5167
       DOS:  cpu time      0.0008: real time      0.0008
    CHARGE:  cpu time      0.4157: real time      0.4175
    MIXING:  cpu time      0.0075: real time      0.0075
    --------------------------------------------
      LOOP:  cpu time     10.6142: real time     10.6724

 eigenvalue-minimisations  :  8088
 total energy-change (2. order) :-0.9483882E-01  (-0.9204714E-02)
 number of electron     359.9999994 magnetization       0.6971404
 augmentation part      -66.2405915 magnetization       0.7622783

 Broyden mixing:
  rms(total) = 0.71992E-01    rms(broyden)= 0.71992E-01
  rms(prec ) = 0.73045E-01
  weight for this iteration     100.00

 eigenvalues of (default mixing * dielectric matrix)
  average eigenvalue GAMMA=   1.3800
  2.7060  1.7594  0.9767  0.8308  0.6272

 Free energy of the ion-electron system (eV)
  ---------------------------------------------------
  alpha Z        PSCENC =       799.99469797
  Ewald energy   TEWEN  =    -12915.64817519
  -Hartree energ DENC   =     -1153.09202585
  -exchange      EXHF   =         0.00000000
  -V(xc)+E(xc)   XCENC  =      -290.44895059
  PAW double counting   =     17002.09626871   -15989.85618332
  entropy T*S    EENTRO =        -0.00000000
  eigenvalues    EBANDS =      -789.89528545
  atomic energy  EATOM  =     13036.45147835
  Solvation  Ediel_sol  =         0.00000000
  ---------------------------------------------------
  free energy    TOTEN  =      -300.39817537 eV

  energy without entropy =     -300.39817537  energy(sigma->0) =     -300.39817537


--------------------------------------------------------------------------------------------------------




--------------------------------------- Iteration      1(  11)  ---------------------------------------


    POTLOK:  cpu time      0.1302: real time      0.1308
    SETDIJ:  cpu time      0.5966: real time      0.5987
     EDDAV:  cpu time     10.1321: real time     10.1904
       DOS:  cpu time      0.0007: real time      0.0007
    CHARGE:  cpu time      0.4178: real time      0.4193
    MIXING:  cpu time      0.0077: real time      0.0077
    --------------------------------------------
      LOOP:  cpu time     11.2851: real time     11.3476

 eigenvalue-minimisations  :  8960
 total energy-change (2. order) :-0.2922037E-01  (-0.3497697E-02)
 number of electron     359.9999994 magnetization       0.1829584
 augmentation part      -66.2259186 magnetization       0.2001979

 Broyden mixing:
  rms(total) = 0.27487E-01    rms(broyden)= 0.27487E-01
  rms(prec ) = 0.28009E-01
  weight for this iteration     100.00

 eigenvalues of (default mixing * dielectric matrix)
  average eigenvalue GAMMA=   1.4008
  2.8987  2.1635  1.1647  0.8544  0.6990  0.6246

 Free energy of the ion-electron system (eV)
  ---------------------------------------------------
  alpha Z        PSCENC =       799.99469797
  Ewald energy   TEWEN  =    -12915.64817519
  -Hartree energ DENC   =     -1154.18691773
  -exchange      EXHF   =         0.00000000
  -V(xc)+E(xc)   XCENC  =      -290.41638914
  PAW double counting   =     16921.01805387   -15908.74927180
  entropy T*S    EENTRO =        -0.00000000
  eigenvalues    EBANDS =      -788.89087205
  atomic energy  EATOM  =     13036.45147835
  Solvation  Ediel_sol  =         0.00000000
  ---------------------------------------------------
  free energy    TOTEN  =      -300.42739573 eV

  energy without entropy =     -300.42739573  energy(sigma->0) =     -300.42739573


--------------------------------------------------------------------------------------------------------




--------------------------------------- Iteration      1(  12)  ---------------------------------------


    POTLOK:  cpu time      0.1311: real time      0.1326
    SETDIJ:  cpu time      0.5971: real time      0.5999
     EDDAV:  cpu time      9.8054: real time      9.8600
       DOS:  cpu time      0.0010: real time      0.0010
    CHARGE:  cpu time      0.4016: real time      0.4209
    MIXING:  cpu time      0.0079: real time      0.0080
    --------------------------------------------
      LOOP:  cpu time     10.9440: real time     11.0224

 eigenvalue-minimisations  :  8472
 total energy-change (2. order) :-0.2872749E-02  (-0.4059803E-03)
 number of electron     359.9999994 magnetization       0.0608000
 augmentation part      -66.2261983 magnetization       0.0651609

 Broyden mixing:
  rms(total) = 0.10592E-01    rms(broyden)= 0.10592E-01
  rms(prec ) = 0.11141E-01
  weight for this iteration     100.00

 eigenvalues of (default mixing * dielectric matrix)
  average eigenvalue GAMMA=   1.3634
  2.9942  2.3109  1.2019  0.8853  0.8853  0.6096  0.6564

 Free energy of the ion-electron system (eV)
  ---------------------------------------------------
  alpha Z        PSCENC =       799.99469797
  Ewald energy   TEWEN  =    -12915.64817519
  -Hartree energ DENC   =     -1154.22357389
  -exchange      EXHF   =         0.00000000
  -V(xc)+E(xc)   XCENC  =      -290.42374024
  PAW double counting   =     16887.48444229   -15875.19385350
  entropy T*S    EENTRO =        -0.00000000
  eigenvalues    EBANDS =      -788.87154427
  atomic energy  EATOM  =     13036.45147835
  Solvation  Ediel_sol  =         0.00000000
  ---------------------------------------------------
  free energy    TOTEN  =      -300.43026848 eV

  energy without entropy =     -300.43026848  energy(sigma->0) =     -300.43026848


--------------------------------------------------------------------------------------------------------




--------------------------------------- Iteration      1(  13)  ---------------------------------------


    POTLOK:  cpu time      0.1357: real time      0.1363
    SETDIJ:  cpu time      0.5921: real time      0.5938
     EDDAV:  cpu time     10.8381: real time     10.8954
       DOS:  cpu time      0.0007: real time      0.0007
    CHARGE:  cpu time      0.4145: real time      0.4159
    MIXING:  cpu time      0.0078: real time      0.0078
    --------------------------------------------
      LOOP:  cpu time     11.9889: real time     12.0500

 eigenvalue-minimisations  :  9712
 total energy-change (2. order) :-0.1213825E-03  (-0.5751582E-04)
 number of electron     359.9999994 magnetization       0.0154361
 augmentation part      -66.2275373 magnetization       0.0162573

 Broyden mixing:
  rms(total) = 0.43491E-02    rms(broyden)= 0.43491E-02
  rms(prec ) = 0.45359E-02
  weight for this iteration     100.00

 eigenvalues of (default mixing * dielectric matrix)
  average eigenvalue GAMMA=   1.3497
  3.0466  2.4226  1.1294  1.1294  0.9273  0.8838  0.6501  0.6087

 Free energy of the ion-electron system (eV)
  ---------------------------------------------------
  alpha Z        PSCENC =       799.99469797
  Ewald energy   TEWEN  =    -12915.64817519
  -Hartree energ DENC   =     -1154.11898606
  -exchange      EXHF   =         0.00000000
  -V(xc)+E(xc)   XCENC  =      -290.43426897
  PAW double counting   =     16874.60100330   -15862.29979354
  entropy T*S    EENTRO =        -0.00000000
  eigenvalues    EBANDS =      -788.97634572
  atomic energy  EATOM  =     13036.45147835
  Solvation  Ediel_sol  =         0.00000000
  ---------------------------------------------------
  free energy    TOTEN  =      -300.43038987 eV

  energy without entropy =     -300.43038987  energy(sigma->0) =     -300.43038987


--------------------------------------------------------------------------------------------------------




--------------------------------------- Iteration      1(  14)  ---------------------------------------


    POTLOK:  cpu time      0.1306: real time      0.1314
    SETDIJ:  cpu time      0.5958: real time      0.5981
     EDDAV:  cpu time      9.5330: real time      9.5979
       DOS:  cpu time      0.0009: real time      0.0009
    CHARGE:  cpu time      0.4127: real time      0.4145
    MIXING:  cpu time      0.0080: real time      0.0080
    --------------------------------------------
      LOOP:  cpu time     10.6810: real time     10.7509

 eigenvalue-minimisations  :  8248
 total energy-change (2. order) :-0.1570394E-04  (-0.7580824E-05)
 number of electron     359.9999994 magnetization       0.0049330
 augmentation part      -66.2271312 magnetization       0.0052867

 Broyden mixing:
  rms(total) = 0.16051E-02    rms(broyden)= 0.16051E-02
  rms(prec ) = 0.17070E-02
  weight for this iteration     100.00

 eigenvalues of (default mixing * dielectric matrix)
  average eigenvalue GAMMA=   1.3319
  3.0731  2.4540  1.4650  1.1828  0.8880  0.8880  0.7809  0.6099  0.6454

 Free energy of the ion-electron system (eV)
  ---------------------------------------------------
  alpha Z        PSCENC =       799.99469797
  Ewald energy   TEWEN  =    -12915.64817519
  -Hartree energ DENC   =     -1154.12676090
  -exchange      EXHF   =         0.00000000
  -V(xc)+E(xc)   XCENC  =      -290.43486803
  PAW double counting   =     16869.94726859   -15857.64311893
  entropy T*S    EENTRO =        -0.00000000
  eigenvalues    EBANDS =      -788.97092743
  atomic energy  EATOM  =     13036.45147835
  Solvation  Ediel_sol  =         0.00000000
  ---------------------------------------------------
  free energy    TOTEN  =      -300.43040557 eV

  energy without entropy =     -300.43040557  energy(sigma->0) =     -300.43040557


--------------------------------------------------------------------------------------------------------




--------------------------------------- Iteration      1(  15)  ---------------------------------------


    POTLOK:  cpu time      0.1305: real time      0.1311
    SETDIJ:  cpu time      0.5987: real time      0.6014
     EDDAV:  cpu time      9.8240: real time      9.8703
       DOS:  cpu time      0.0008: real time      0.0008
    CHARGE:  cpu time      0.4187: real time      0.4206
    MIXING:  cpu time      0.0082: real time      0.0082
    --------------------------------------------
      LOOP:  cpu time     10.9809: real time     11.0325

 eigenvalue-minimisations  :  8576
 total energy-change (2. order) :-0.2834060E-05  (-0.1490935E-05)
 number of electron     359.9999994 magnetization       0.0017958
 augmentation part      -66.2272315 magnetization       0.0019952

 Broyden mixing:
  rms(total) = 0.71821E-03    rms(broyden)= 0.71821E-03
  rms(prec ) = 0.76128E-03
  weight for this iteration     100.00

 eigenvalues of (default mixing * dielectric matrix)
  average eigenvalue GAMMA=   1.3028
  3.0829  2.4210  1.6740  1.1001  0.9835  0.9835  0.8347  0.7066  0.6207  0.6207

 Free energy of the ion-electron system (eV)
  ---------------------------------------------------
  alpha Z        PSCENC =       799.99469797
  Ewald energy   TEWEN  =    -12915.64817519
  -Hartree energ DENC   =     -1154.11630664
  -exchange      EXHF   =         0.00000000
  -V(xc)+E(xc)   XCENC  =      -290.43509466
  PAW double counting   =     16869.53532807   -15857.23048863
  entropy T*S    EENTRO =        -0.00000000
  eigenvalues    EBANDS =      -788.98184768
  atomic energy  EATOM  =     13036.45147835
  Solvation  Ediel_sol  =         0.00000000
  ---------------------------------------------------
  free energy    TOTEN  =      -300.43040840 eV

  energy without entropy =     -300.43040840  energy(sigma->0) =     -300.43040840


--------------------------------------------------------------------------------------------------------




--------------------------------------- Iteration      1(  16)  ---------------------------------------


    POTLOK:  cpu time      0.1309: real time      0.1315
    SETDIJ:  cpu time      0.5987: real time      0.6012
     EDDAV:  cpu time      6.5599: real time      6.5915
       DOS:  cpu time      0.0009: real time      0.0009
    --------------------------------------------
      LOOP:  cpu time      7.2904: real time      7.3251

 eigenvalue-minimisations  :  4728
 total energy-change (2. order) :-0.4647457E-06  (-0.1385267E-06)
 number of electron     359.9999994 magnetization       0.0017958
 augmentation part      -66.2272315 magnetization       0.0019952

 Free energy of the ion-electron system (eV)
  ---------------------------------------------------
  alpha Z        PSCENC =       799.99469797
  Ewald energy   TEWEN  =    -12915.64817519
  -Hartree energ DENC   =     -1154.10934558
  -exchange      EXHF   =         0.00000000
  -V(xc)+E(xc)   XCENC  =      -290.43537176
  PAW double counting   =     16869.52200668   -15857.21691624
  entropy T*S    EENTRO =        -0.00000000
  eigenvalues    EBANDS =      -788.98878311
  atomic energy  EATOM  =     13036.45147835
  Solvation  Ediel_sol  =         0.00000000
  ---------------------------------------------------
  free energy    TOTEN  =      -300.43040887 eV

  energy without entropy =     -300.43040887  energy(sigma->0) =     -300.43040887


--------------------------------------------------------------------------------------------------------




 average (electrostatic) potential at core
  the test charge radii are     1.1631  1.0808
  (the norm of the test charge is              1.0000)
       1 -33.6098       2 -33.1878       3 -33.5116       4 -33.3042       5 -33.3975
       6 -33.5390       7 -33.6848       8 -33.6227       9 -33.6686      10 -33.5480
      11 -33.4709      12 -33.5682      13 -33.5063      14 -33.4606      15 -33.4686
      16 -33.4316      17 -33.4442      18 -33.4232      19 -33.5343      20 -33.4124
      21 -33.3683      22 -33.3040      23 -33.4404      24 -33.5050      25 -33.6586
      26 -33.6194      27 -33.5021      28 -33.2395      29 -33.4498      30 -33.4063
      31 -33.5233      32 -33.5085      33 -33.5117      34 -33.5646      35 -33.3203
      36 -33.3584      37 -54.9043      38 -54.7893      39 -54.8696      40 -54.7627
      41 -54.8742      42 -54.9472      43 -54.5790      44 -54.9569      45 -54.6455
      46 -54.5730      47 -54.7635      48 -54.8123      49 -54.7257      50 -54.9005
      51 -54.9614      52 -54.8073      53 -54.5606      54 -55.0248      55 -54.8303
      56 -54.8662      57 -54.7306      58 -54.8453      59 -54.8379      60 -54.7039
      61 -54.8948      62 -54.9132      63 -54.8562      64 -54.9122      65 -54.8176
      66 -54.8016      67 -54.4964      68 -54.8482      69 -54.7276      70 -54.6351
      71 -54.6498      72 -54.7120
 
 
 
 E-fermi :   3.5002     XC(G=0):  -9.4052     alpha+bet : -8.8553

 Fermi energy:         3.5002371073

 spin component 1

 k-point     1 :       0.0000    0.0000    0.0000
  band No.  band energies     occupation 
      1     -10.8342      1.00000
      2     -10.4981      1.00000
      3     -10.3602      1.00000
      4     -10.2869      1.00000
      5     -10.2694      1.00000
      6     -10.2079      1.00000
      7     -10.0200      1.00000
      8      -9.9984      1.00000
      9      -9.9401      1.00000
     10      -9.8819      1.00000
     11      -9.8377      1.00000
     12      -9.7866      1.00000
     13      -9.7530      1.00000
     14      -9.7096      1.00000
     15      -9.5944      1.00000
     16      -9.5694      1.00000
     17      -9.5213      1.00000
     18      -9.5094      1.00000
     19      -9.4531      1.00000
     20      -9.4323      1.00000
     21      -9.4135      1.00000
     22      -9.3189      1.00000
     23      -9.2999      1.00000
     24      -9.2687      1.00000
     25      -9.2438      1.00000
     26      -9.2013      1.00000
     27      -9.1671      1.00000
     28      -9.1133      1.00000
     29      -9.1041      1.00000
     30      -9.0699      1.00000
     31      -8.9852      1.00000
     32      -8.9775      1.00000
     33      -8.9635      1.00000
     34      -8.8680      1.00000
     35      -8.8110      1.00000
     36      -8.7819      1.00000
     37      -5.4730      1.00000
     38      -5.3449      1.00000
     39      -5.2921      1.00000
     40      -5.2692      1.00000
     41      -5.1723      1.00000
     42      -5.0694      1.00000
     43      -5.0152      1.00000
     44      -4.9274      1.00000
     45      -4.7374      1.00000
     46      -4.6953      1.00000
     47      -4.5551      1.00000
     48      -4.5155      1.00000
     49      -4.4766      1.00000
     50      -4.4489      1.00000
     51      -4.4214      1.00000
     52      -4.3501      1.00000
     53      -4.3180      1.00000
     54      -4.2872      1.00000
     55      -4.2616      1.00000
     56      -4.2296      1.00000
     57      -4.2151      1.00000
     58      -4.1692      1.00000
     59      -4.1101      1.00000
     60      -4.0899      1.00000
     61      -4.0440      1.00000
     62      -4.0111      1.00000
     63      -3.9588      1.00000
     64      -3.8514      1.00000
     65      -3.8411      1.00000
     66      -3.7913      1.00000
     67      -3.6929      1.00000
     68      -3.6037      1.00000
     69      -3.4644      1.00000
     70      -3.3723      1.00000
     71      -2.4442      1.00000
     72      -2.3663      1.00000
     73      -1.7853      1.00000
     74      -1.5778      1.00000
     75      -1.5543      1.00000
     76      -1.5011      1.00000
     77      -1.4924      1.00000
     78      -1.3502      1.00000
     79      -1.3035      1.00000
     80      -1.2560      1.00000
     81      -1.2083      1.00000
     82      -1.1492      1.00000
     83      -1.1198      1.00000
     84      -1.0677      1.00000
     85      -1.0099      1.00000
     86      -0.7948      1.00000
     87      -0.7702      1.00000
     88      -0.6868      1.00000
     89      -0.6328      1.00000
     90      -0.6150      1.00000
     91      -0.5558      1.00000
     92      -0.4374      1.00000
     93      -0.3921      1.00000
     94      -0.3395      1.00000
     95      -0.1433      1.00000
     96      -0.0882      1.00000
     97       0.0377      1.00000
     98       0.0701      1.00000
     99       0.0860      1.00000
    100       0.1531      1.00000
    101       0.1884      1.00000
    102       0.2447      1.00000
    103       0.2723      1.00000
    104       0.2853      1.00000
    105       0.2972      1.00000
    106       0.3626      1.00000
    107       0.3974      1.00000
    108       0.4175      1.00000
    109       0.4728      1.00000
    110       0.4911      1.00000
    111       0.5305      1.00000
    112       0.5795      1.00000
    113       0.6162      1.00000
    114       0.6267      1.00000
    115       0.6622      1.00000
    116       0.6845      1.00000
    117       0.7429      1.00000
    118       0.7898      1.00000
    119       0.8581      1.00000
    120       0.8878      1.00000
    121       0.9144      1.00000
    122       0.9323      1.00000
    123       0.9706      1.00000
    124       0.9985      1.00000
    125       1.0035      1.00000
    126       1.0335      1.00000
    127       1.0615      1.00000
    128       1.0954      1.00000
    129       1.1359      1.00000
    130       1.1411      1.00000
    131       1.1948      1.00000
    132       1.2674      1.00000
    133       1.3145      1.00000
    134       1.3378      1.00000
    135       1.3663      1.00000
    136       1.4127      1.00000
    137       1.4896      1.00000
    138       1.5259      1.00000
    139       1.5847      1.00000
    140       1.6281      1.00000
    141       1.6515      1.00000
    142       1.6809      1.00000
    143       1.7454      1.00000
    144       1.7697      1.00000
    145       1.7978      1.00000
    146       1.8543      1.00000
    147       1.8734      1.00000
    148       1.9056      1.00000
    149       1.9294      1.00000
    150       1.9455      1.00000
    151       1.9925      1.00000
    152       2.0228      1.00000
[...]
   -.112E+01 -.127E+02 -.196E+02   0.116E+01 0.152E+02 0.224E+02   0.722E-01 -.230E+01 -.277E+01   -.123E-04 0.358E-04 0.185E-03
   -.121E+01 0.732E+01 0.313E+02   0.104E+01 -.852E+01 -.343E+02   0.177E+00 0.179E+01 0.272E+01   0.177E-03 0.100E-04 -.273E-04
   -.131E+02 0.415E+01 0.283E+02   0.139E+02 -.517E+01 -.300E+02   0.227E-01 0.731E+00 0.138E+01   0.808E-04 -.322E-03 0.128E-03
   0.145E+01 0.736E+01 0.296E+02   -.994E+00 -.774E+01 -.311E+02   -.534E+00 0.637E+00 0.152E+01   -.124E-03 0.184E-05 0.126E-04
   -.111E+02 -.308E+01 0.269E+02   0.120E+02 0.292E+01 -.285E+02   -.952E+00 0.290E+00 0.174E+01   -.211E-03 -.854E-04 0.130E-04
   -.149E+02 -.789E+01 0.196E+02   0.156E+02 0.763E+01 -.211E+02   -.832E+00 0.233E+00 0.147E+01   -.159E-05 -.132E-03 0.776E-04
   0.915E+00 0.250E+02 0.277E+02   -.975E+00 -.266E+02 -.295E+02   0.388E+00 0.136E+01 0.151E+01   0.135E-03 0.375E-03 -.184E-03
   -.430E+01 0.485E+01 0.253E+02   0.426E+01 -.548E+01 -.272E+02   -.886E-01 0.486E+00 0.166E+01   0.266E-03 -.228E-03 -.838E-05
   -.147E+02 0.667E+01 0.314E+02   0.155E+02 -.721E+01 -.331E+02   -.753E+00 0.218E+00 0.163E+01   -.507E-04 0.190E-03 0.109E-03
   0.108E+01 -.120E+02 -.155E+02   -.157E+01 0.129E+02 0.165E+02   0.269E+00 -.489E+00 -.144E+01   0.369E-03 -.387E-03 0.991E-04
   0.219E+02 -.765E+01 -.244E+02   -.227E+02 0.856E+01 0.259E+02   0.596E-01 -.687E+00 -.153E+01   0.474E-04 -.170E-03 0.396E-04
   0.158E+02 0.122E+01 -.406E+02   -.165E+02 -.712E+00 0.417E+02   0.835E+00 -.750E+00 -.690E+00   0.184E-03 0.176E-04 -.707E-04
   0.219E+02 -.117E+02 -.316E+02   -.225E+02 0.127E+02 0.333E+02   0.892E-01 -.130E+01 -.969E+00   -.275E-04 0.447E-04 0.206E-04
   0.935E+01 -.366E+01 -.190E+02   -.986E+01 0.415E+01 0.204E+02   0.471E+00 -.520E+00 -.186E+01   -.287E-03 -.184E-03 -.744E-04
   -.726E+01 -.831E+01 -.344E+02   0.752E+01 0.934E+01 0.356E+02   -.599E-01 -.146E+01 -.107E+01   -.299E-03 0.142E-03 0.471E-03
   0.640E+01 -.142E+02 -.332E+02   -.675E+01 0.155E+02 0.354E+02   -.160E-01 -.129E+01 -.142E+01   0.189E-03 -.141E-03 -.192E-03
   0.129E+01 0.883E+01 0.278E+02   -.119E+01 -.998E+01 -.293E+02   0.268E+00 0.145E+01 0.141E+01   -.998E-04 0.400E-04 0.314E-04
   0.413E+01 0.939E+01 0.339E+02   -.414E+01 -.105E+02 -.353E+02   -.259E+00 0.137E+01 0.107E+01   -.124E-03 0.149E-03 0.524E-04
   -.481E+01 -.502E+01 0.189E+02   0.508E+01 0.550E+01 -.198E+02   -.236E+00 -.103E+01 0.105E+01   -.125E-03 -.374E-03 -.201E-03
   0.554E+01 0.120E+02 0.181E+02   -.557E+01 -.120E+02 -.189E+02   0.396E+00 0.237E-01 0.107E+01   -.180E-03 0.102E-03 0.101E-03
   -.528E+01 -.133E+02 0.133E+02   0.559E+01 0.146E+02 -.146E+02   -.108E+00 -.154E+01 0.191E+01   0.801E-04 0.169E-03 -.675E-04
   -.108E+02 -.135E+02 -.241E+02   0.109E+02 0.145E+02 0.257E+02   0.644E+00 -.695E+00 -.186E+01   0.184E-03 0.463E-03 -.745E-04
   0.330E+01 0.269E+01 -.149E+02   -.318E+01 -.346E+01 0.160E+02   -.725E-02 0.750E+00 -.156E+01   0.114E-03 0.221E-03 0.158E-03
   -.142E+01 0.209E+02 -.162E+02   0.192E+01 -.226E+02 0.178E+02   0.256E+00 0.789E+00 -.196E+01   -.488E-04 -.797E-04 0.146E-03
   -.378E+00 0.120E+02 -.268E+02   0.659E+00 -.133E+02 0.284E+02   -.221E+00 0.984E+00 -.178E+01   -.266E-03 0.600E-04 0.187E-03
   -.171E+02 0.997E+01 -.138E+02   0.180E+02 -.107E+02 0.150E+02   -.716E+00 0.603E+00 -.154E+01   -.413E-03 0.220E-03 -.701E-04
   -.122E+02 0.591E+01 -.361E+02   0.127E+02 -.712E+01 0.380E+02   -.322E-02 0.103E+01 -.135E+01   -.301E-04 0.469E-04 0.189E-03
   -.228E+01 0.139E+02 -.358E+02   0.196E+01 -.151E+02 0.380E+02   0.403E+00 0.114E+01 -.152E+01   -.210E-04 -.210E-03 0.326E-03
   0.829E+01 0.105E+02 -.167E+02   -.843E+01 -.114E+02 0.182E+02   -.167E+00 0.116E+01 -.183E+01   0.309E-03 0.163E-03 0.221E-04
   -.802E+01 0.148E+01 -.315E+02   0.845E+01 -.194E+01 0.329E+02   -.408E+00 0.835E+00 -.129E+01   0.674E-04 0.195E-03 0.632E-04
   0.315E+01 0.629E+01 -.322E+02   -.321E+01 -.718E+01 0.338E+02   -.253E+00 0.850E+00 -.145E+01   0.254E-03 -.284E-03 0.213E-03
   -.121E+02 -.160E+02 0.230E+02   0.126E+02 0.170E+02 -.245E+02   -.144E+00 -.124E+01 0.138E+01   -.191E-03 -.766E-04 -.269E-04
   -.113E+01 -.114E+02 0.282E+02   0.116E+01 0.121E+02 -.302E+02   -.946E-01 -.685E+00 0.186E+01   0.167E-03 -.171E-03 0.264E-04
   -.940E+01 -.789E+01 0.253E+02   0.979E+01 0.891E+01 -.268E+02   -.261E+00 -.988E+00 0.183E+01   0.454E-04 0.424E-04 -.153E-03
   0.318E+01 -.246E+01 0.428E+02   -.394E+01 0.273E+01 -.451E+02   0.791E+00 -.417E+00 0.108E+01   0.227E-03 0.375E-03 0.125E-03
   -.297E+01 -.597E+01 0.337E+02   0.320E+01 0.662E+01 -.354E+02   -.441E+00 -.945E+00 0.149E+01   -.737E-04 -.532E-03 -.201E-03
   0.208E+02 0.266E+00 0.195E+02   -.212E+02 0.624E-01 -.207E+02   -.187E+00 -.306E+00 0.134E+01   -.241E-03 -.172E-06 -.229E-03
   -.924E+01 -.437E+00 -.300E+02   0.933E+01 0.894E+00 0.318E+02   0.148E+00 -.586E+00 -.102E+01   0.677E-06 -.822E-04 -.253E-03
 -----------------------------------------------------------------------------------------------
   -.285E+01 0.140E+01 0.112E+01   -.728E-13 -.195E-13 0.107E-13   0.285E+01 -.140E+01 -.113E+01   -.135E-03 -.313E-03 0.742E-03
 
 
 POSITION                                       TOTAL-FORCE (eV/Angst)
 -----------------------------------------------------------------------------------
      0.91942      0.59154      1.35699        -0.395803     -0.140434      0.307830
      2.87044     10.99742      4.07349         0.275254     -0.296048     -0.067161
      6.95952      2.50003      4.12783        -0.417697      0.323000     -0.378055
      6.98924      6.85739      4.14930         0.307729     -0.058063      0.828437
      7.09090     11.02045      4.18455        -0.051225     -0.107075     -0.014537
     10.92479      2.52536      3.99074         0.376286      0.286131     -0.213799
     11.34590      6.65209      4.27995         0.190706      0.440528     -0.595634
     10.99044     10.99738      4.41220         0.503455     -0.269672     -0.630617
      0.98220      1.98546      6.79269        -0.186566     -0.019517      0.562986
      1.09731      6.24194      6.98542        -0.169143     -0.220495      0.221431
      0.94497     10.17012      6.94263        -0.197156     -0.025071      0.204704
      4.84204      1.80292      6.91727         0.219967     -0.046750      0.400130
      5.23103      6.31811      6.90476        -0.252558     -0.257814     -0.237836
      5.17443     10.47390      7.11357         0.148240     -0.047624     -0.713142
      9.32736      1.92023      7.02321        -0.451113      0.422331      0.218280
      9.07682      6.01905      6.84973         0.156271     -0.079923      0.082074
      2.96356      6.90754      4.18325         0.041631     -0.121118     -0.212636
      2.87927      2.76864      4.22828        -0.153533      0.127749     -0.228447
      9.32939     10.19780      6.87640         0.123234     -0.089119      0.238684
     11.26008      8.06605      9.77826        -0.563525      0.453375     -0.003629
     11.34504     12.20368      9.63338        -0.251747      0.366041      0.292757
      1.12480      4.69659      1.25433        -0.451326      0.212047      0.157052
      0.86294      8.76263      1.35438        -0.053122      0.507296     -0.036082
      5.14543      0.66801      1.52109        -0.207533     -0.404526      0.135451
      4.71555      4.40465      1.22264         0.140970      0.574061      0.498106
      9.29710      0.59806      1.29506        -0.111658     -0.211874      0.279267
      8.97394      4.88322      1.53870         0.343048     -0.233756      0.144399
      5.21088      8.83065      1.57836        -0.105305      0.491509     -0.926783
      3.07373      4.03474      9.65268        -0.282423     -0.150468     -0.285091
      2.99529      8.10731      9.58668        -0.257745      0.524979      0.075025
      2.87105     12.46974      9.71598        -0.024990     -0.075059     -0.065142
      7.24125      4.10919      9.64142        -0.076770     -0.318922      0.185426
      7.23649      8.16604      9.61935        -0.049652     -0.039192      0.269139
      6.98725     12.17008      9.78712         0.251388      0.138402     -0.216354
     11.23480      3.93347      9.61325         0.110732      0.215144     -0.045620
      9.32286      8.75610      1.43552         0.002276      0.580141     -0.304085
     11.12936      0.24581      7.16009         0.751951     -0.285902     -0.319760
      2.98030      4.39571      7.10508        -0.074322      0.259547      0.049404
      2.87798      8.46199      7.04188        -0.010704      0.131641      0.061055
      6.97449      0.20212      7.24383        -0.154138     -0.026975     -0.002666
      6.94058      4.42234      7.15347         0.328175     -0.202614     -0.290740
      7.12988      8.65226      7.14712        -0.125518     -0.146479     -0.194548
     11.15272      4.44220      7.08225         0.010086     -0.317340     -0.069386
      9.17210      0.20635      4.06817        -0.216929      0.498356     -0.427007
      1.07724      0.23987      3.90959        -0.739684      0.221415     -0.113633
      0.80444      4.35482      3.74924         0.141228     -0.238090      0.499005
      1.05836      8.62210      3.83418        -0.445848     -0.311218      0.686131
      5.09345      0.22723      4.12121        -0.041227     -0.029658     -0.441549
      4.94297      4.41688      3.77917         0.195760     -0.437835      0.117150
      5.12487      8.60401      3.98667        -0.368499     -0.005249      0.863811
      2.75805      0.10180      7.15124         0.362229      0.295943     -0.087419
     11.29767      8.44984      7.26455        -0.269438      0.290330     -0.353327
     11.24071     10.71546      1.75018         0.031636     -0.541592      0.182427
      2.94377      2.31520      1.62799         0.370105      0.012385      0.234354
     11.20476      2.33119      1.41396         0.208149     -0.210511      0.565246
      8.91774      4.22146      4.05595         0.694382      0.332338     -0.229200
      0.86638      2.32857      9.43153         0.105365     -0.014274     -0.377277
      0.75115      6.58680      9.57492         0.759856     -0.926521     -0.381172
      0.88314     10.65211      9.52481         0.060493     -0.334296     -0.236206
      4.93145      2.29044      9.54382         0.110800     -0.085750     -0.362808
      4.92574      6.50646      9.36320         0.509908     -0.184568      0.497611
      4.83777     10.63109      9.52234         0.082416     -0.087686      0.702816
      9.18167      2.24230      9.59241        -0.307001      0.261061     -0.385023
      9.06896      6.29912      9.43158         0.025642      0.374963      0.139538
      9.20684     10.59052      9.40145        -0.313261     -0.040638      0.098628
      2.94594      6.49382      1.60613         0.326484     -0.213851     -0.109866
      3.05932     10.51851      1.57848        -0.064309      0.027421     -0.068499
      7.12304      2.31337      1.52453         0.130376      0.040168      0.393121
      7.03110      6.47637      1.77513         0.031694     -0.149248     -1.222839
      7.24400     10.63928      1.67838        -0.211182     -0.298684     -0.244427
     11.48258      6.39737      1.69839        -0.611603      0.022374      0.130600
      9.22291      8.46521      3.87615         0.236334     -0.129180      0.769926
 -----------------------------------------------------------------------------------
    total drift:                                0.000182      0.000029      0.000029


--------------------------------------------------------------------------------------------------------



  FREE ENERGIE OF THE ION-ELECTRON SYSTEM (eV)
  ---------------------------------------------------
  free  energy   TOTEN  =      -300.43040887 eV

  energy  without entropy=     -300.43040887  energy(sigma->0) =     -300.43040887
 


--------------------------------------------------------------------------------------------------------


    POTLOK:  cpu time      0.7293: real time      0.7325


--------------------------------------------------------------------------------------------------------


     LOOP+:  cpu time    180.5558: real time    181.5450
    4ORBIT:  cpu time      0.0000: real time      0.0000



 total charge

# of ion       s       p       d       tot
------------------------------------------
    1        1.329   0.722   0.050   2.102
    2        1.314   0.794   0.060   2.168
    3        1.331   0.736   0.055   2.121
    4        1.304   0.826   0.067   2.196
    5        1.319   0.773   0.057   2.149
    6        1.331   0.730   0.049   2.109
    7        1.338   0.683   0.043   2.064
    8        1.326   0.726   0.051   2.103
    9        1.336   0.702   0.048   2.086
   10        1.330   0.725   0.051   2.106
   11        1.324   0.755   0.053   2.133
   12        1.331   0.722   0.049   2.102
   13        1.319   0.772   0.060   2.151
   14        1.327   0.768   0.058   2.153
   15        1.322   0.768   0.056   2.146
   16        1.324   0.753   0.055   2.131
   17        1.325   0.747   0.054   2.126
   18        1.317   0.752   0.054   2.122
   19        1.310   0.770   0.056   2.136
   20        1.317   0.790   0.062   2.169
   21        1.310   0.799   0.060   2.169
   22        1.318   0.776   0.061   2.155
   23        1.329   0.727   0.054   2.110
   24        1.331   0.739   0.052   2.122
   25        1.330   0.722   0.053   2.105
   26        1.343   0.698   0.051   2.091
   27        1.325   0.748   0.051   2.124
   28        1.320   0.788   0.060   2.169
   29        1.304   0.786   0.057   2.148
   30        1.325   0.775   0.059   2.160
   31        1.332   0.734   0.057   2.122
   32        1.328   0.743   0.052   2.124
   33        1.327   0.752   0.052   2.130
   34        1.328   0.733   0.050   2.111
   35        1.326   0.758   0.055   2.139
   36        1.322   0.750   0.054   2.127
   37        1.474   2.320   0.034   3.827
   38        1.477   2.281   0.027   3.785
   39        1.477   2.299   0.032   3.808
   40        1.476   2.284   0.028   3.788
   41        1.475   2.311   0.032   3.818
   42        1.476   2.302   0.032   3.811
   43        1.475   2.288   0.026   3.789
   44        1.474   2.304   0.033   3.811
   45        1.475   2.302   0.028   3.804
   46        1.475   2.292   0.028   3.794
   47        1.475   2.303   0.032   3.810
   48        1.479   2.285   0.030   3.794
   49        1.478   2.283   0.028   3.789
   50        1.476   2.327   0.038   3.841
   51        1.476   2.301   0.033   3.811
   52        1.475   2.299   0.030   3.803
   53        1.476   2.265   0.022   3.763
   54        1.476   2.297   0.034   3.807
   55        1.479   2.285   0.030   3.795
   56        1.477   2.300   0.032   3.808
   57        1.475   2.283   0.027   3.785
   58        1.476   2.316   0.034   3.827
   59        1.476   2.302   0.032   3.810
   60        1.476   2.288   0.028   3.791
   61        1.475   2.319   0.034   3.828
   62        1.478   2.314   0.035   3.826
   63        1.478   2.286   0.030   3.794
   64        1.476   2.294   0.031   3.801
   65        1.478   2.286   0.029   3.793
   66        1.474   2.298   0.031   3.803
   67        1.476   2.285   0.026   3.787
   68        1.478   2.292   0.031   3.801
   69        1.474   2.335   0.036   3.845
   70        1.475   2.290   0.027   3.792
   71        1.477   2.276   0.026   3.780
   72        1.474   2.300   0.029   3.804
--------------------------------------------------
tot        100.810 109.735   3.057 213.602



 magnetization (x)

# of ion       s       p       d       tot
------------------------------------------
    1       -0.000  -0.000  -0.000  -0.000
    2       -0.000   0.000  -0.000   0.000
    3       -0.000   0.000   0.000   0.000
    4       -0.000   0.000   0.000   0.000
    5       -0.000   0.000   0.000   0.000
    6       -0.000   0.000   0.000   0.000
    7       -0.000   0.000   0.000   0.000
    8       -0.000   0.000   0.000   0.000
    9       -0.000   0.000   0.000   0.000
   10       -0.000   0.000  -0.000   0.000
   11       -0.000   0.000  -0.000   0.000
   12       -0.000   0.000   0.000   0.000
   13       -0.000   0.000   0.000   0.000
   14       -0.000   0.000  -0.000   0.000
   15       -0.000   0.000   0.000   0.000
   16       -0.000   0.000   0.000   0.000
   17       -0.000   0.000   0.000   0.000
   18       -0.000   0.000   0.000   0.000
   19       -0.000   0.000   0.000   0.000
   20       -0.000   0.000  -0.000   0.000
   21       -0.000   0.000  -0.000   0.000
   22       -0.000   0.000  -0.000   0.000
   23       -0.000  -0.000  -0.000  -0.000
   24       -0.000   0.000   0.000   0.000
   25       -0.000   0.000   0.000   0.000
   26       -0.000   0.000   0.000   0.000
   27       -0.000   0.000   0.000   0.000
   28       -0.000   0.000  -0.000   0.000
   29       -0.000   0.000   0.000   0.000
   30       -0.000   0.000  -0.000  -0.000
   31       -0.000   0.000  -0.000  -0.000
   32       -0.000   0.000   0.000   0.000
   33       -0.000   0.000   0.000   0.000
   34       -0.000   0.000   0.000   0.000
   35       -0.000   0.000   0.000   0.000
   36       -0.000   0.000  -0.000   0.000
   37       -0.000  -0.000   0.000  -0.000
   38       -0.000  -0.000   0.000  -0.000
   39       -0.000  -0.000  -0.000  -0.000
   40       -0.000  -0.000   0.000  -0.000
   41       -0.000  -0.000   0.000  -0.000
   42       -0.000  -0.000   0.000  -0.000
   43       -0.000  -0.000   0.000  -0.000
   44       -0.000  -0.000   0.000  -0.000
   45       -0.000  -0.000  -0.000  -0.000
   46       -0.000  -0.000   0.000  -0.000
   47       -0.000  -0.000  -0.000  -0.000
   48       -0.000  -0.000   0.000  -0.000
   49       -0.000  -0.000   0.000  -0.000
   50       -0.000  -0.000   0.000  -0.000
   51       -0.000  -0.000   0.000  -0.000
   52       -0.000  -0.000   0.000  -0.000
   53       -0.000  -0.000  -0.000  -0.000
   54       -0.000  -0.000   0.000  -0.000
   55       -0.000  -0.000   0.000  -0.000
   56       -0.000  -0.000   0.000  -0.000
   57       -0.000  -0.000   0.000  -0.000
   58       -0.000  -0.000  -0.000  -0.000
   59       -0.000  -0.000  -0.000  -0.000
   60       -0.000  -0.000   0.000  -0.000
   61       -0.000  -0.000   0.000  -0.000
   62       -0.000  -0.000   0.000  -0.000
   63       -0.000  -0.000   0.000  -0.000
   64       -0.000  -0.000   0.000  -0.000
   65       -0.000  -0.000   0.000  -0.000
   66       -0.000  -0.000   0.000  -0.000
   67       -0.000  -0.000  -0.000  -0.000
   68       -0.000  -0.000   0.000  -0.000
   69       -0.000  -0.000   0.000  -0.000
   70       -0.000  -0.000   0.000  -0.000
   71       -0.000  -0.000  -0.000  -0.000
   72       -0.000  -0.000   0.000  -0.000
--------------------------------------------------
tot         -0.000  -0.000   0.000  -0.000
 

 total amount of memory used by VASP MPI-rank0   110844. kBytes
=======================================================================

   base      :      30000. kBytes
   nonl-proj :      16377. kBytes
   fftplans  :       6179. kBytes
   grid      :      15593. kBytes
   one-center:        146. kBytes
   wavefun   :      42549. kBytes
 
  
  
 General timing and accounting informations for this job:
 ========================================================
  
                  Total CPU time used (sec):      192.162
                            User time (sec):      186.426
                          System time (sec):        5.736
                         Elapsed time (sec):      195.046
  
                   Maximum memory used (kb):      315704.
                   Average memory used (kb):          N/A
  
                          Minor page faults:       106045
                          Major page faults:           42
                 Voluntary context switches:        11061
