 running  128 mpi-ranks, with    1 threads/rank, on    2 nodes
 distrk:  each k-point on   64 cores,    2 groups
 distr:  one band on    4 cores,   16 groups
 vasp.6.4.2 20Jul23 (build Oct 12 2023 10:31:02) complex                         
 POSCAR found type information on POSCAR GeSe
 POSCAR found :  2 types and       8 ions
 Reading from existing POTCAR
 scaLAPACK will be used
 Reading from existing POTCAR
 LDA part: xc-table for Pade appr. of Perdew
 POSCAR, INCAR and KPOINTS ok, starting setup
 FFT: planning ... GRIDC
 FFT: planning ... GRID_SOFT
 FFT: planning ... GRID
 WAVECAR not read
 entering main loop
       N       E                     dE             d eps       ncg     rms          rms(c)
DAV:   1     0.135159882730E+03    0.13516E+03   -0.12541E+04  2560   0.759E+02
DAV:   2    -0.235404369264E+02   -0.15870E+03   -0.15421E+03  3696   0.135E+02
DAV:   3    -0.336690342024E+02   -0.10129E+02   -0.10100E+02  3216   0.399E+01
DAV:   4    -0.337510140393E+02   -0.81980E-01   -0.81973E-01  3136   0.415E+00
DAV:   5    -0.337515662084E+02   -0.55217E-03   -0.55217E-03  3184   0.335E-01    0.604E+00
DAV:   6    -0.330942569634E+02    0.65731E+00   -0.15295E+00  2880   0.395E+00    0.369E+00
DAV:   7    -0.330872256168E+02    0.70313E-02   -0.29143E-01  2912   0.189E+00    0.169E+00
DAV:   8    -0.330872268279E+02   -0.12111E-05   -0.30383E-02  2944   0.691E-01    0.187E-01
DAV:   9    -0.330869890281E+02    0.23780E-03   -0.60873E-03  3120   0.311E-01    0.801E-02
DAV:  10    -0.330872397057E+02   -0.25068E-03   -0.71830E-04  2784   0.115E-01    0.278E-02
DAV:  11    -0.330872793734E+02   -0.39668E-04   -0.58149E-05  3104   0.343E-02    0.157E-02
DAV:  12    -0.330872810976E+02   -0.17242E-05   -0.15760E-05  2912   0.161E-02    0.347E-03
DAV:  13    -0.330872820034E+02   -0.90581E-06   -0.18268E-06  2320   0.499E-03
   1 F= -.33087282E+02 E0= -.33087282E+02  d E =-.984828E-12
